Automatically generated mesh
      12
Reciprocal lattice
    0.00000000000000    0.00000000000000    0.00000000000000             1
    0.20000000000000    0.00000000000000    0.00000000000000             6
    0.40000000000000    0.00000000000000    0.00000000000000             6
    0.20000000000000    0.20000000000000    0.00000000000000             6
    0.40000000000000    0.20000000000000    0.00000000000000             6
    0.00000000000000    0.00000000000000    0.33333333333334             2
    0.20000000000000    0.00000000000000    0.33333333333334             6
    0.00000000000000    0.20000000000000    0.33333333333334             6
    0.40000000000000    0.00000000000000    0.33333333333334             6
    0.00000000000000    0.40000000000000    0.33333333333334             6
    0.20000000000000    0.20000000000000    0.33333333333334            12
    0.40000000000000    0.20000000000000    0.33333333333334            12
