       N       E                     dE             d eps       ncg     rms          rms(c)
DAV:   1     0.758480232440E+04    0.75848E+04   -0.24380E+05  1632   0.159E+03
DAV:   2     0.101609999818E+04   -0.65687E+04   -0.60205E+04  1648   0.452E+02
DAV:   3    -0.591508692149E+03   -0.16076E+04   -0.14863E+04  1784   0.230E+02
DAV:   4    -0.768376536926E+03   -0.17687E+03   -0.17236E+03  2240   0.850E+01
DAV:   5    -0.775605445648E+03   -0.72289E+01   -0.71693E+01  2304   0.194E+01    0.130E+02
RMM:   6    -0.721713362303E+03    0.53892E+02   -0.15712E+03  2272   0.942E+01    0.295E+02
RMM:   7    -0.623212653860E+03    0.98501E+02   -0.20021E+02  1954   0.371E+01    0.136E+02
RMM:   8    -0.612305926292E+03    0.10907E+02   -0.13208E+02  1877   0.250E+01    0.140E+02
RMM:   9    -0.590038108388E+03    0.22268E+02   -0.48813E+01  1962   0.172E+01    0.634E+01
RMM:  10    -0.604282054721E+03   -0.14244E+02   -0.10420E+01  2067   0.704E+00    0.454E+01
RMM:  11    -0.610481439840E+03   -0.61994E+01   -0.10694E+01  1918   0.667E+00    0.293E+01
RMM:  12    -0.612414371006E+03   -0.19329E+01   -0.47168E+00  1998   0.416E+00    0.195E+01
RMM:  13    -0.612662161365E+03   -0.24779E+00   -0.14881E+00  2099   0.257E+00    0.145E+01
RMM:  14    -0.612988073563E+03   -0.32591E+00   -0.58178E-01  1951   0.177E+00    0.103E+01
RMM:  15    -0.613060942433E+03   -0.72869E-01   -0.46699E-01  1968   0.155E+00    0.635E+00
RMM:  16    -0.612930853531E+03    0.13009E+00   -0.40876E-01  1906   0.125E+00    0.400E+00
RMM:  17    -0.612944988620E+03   -0.14135E-01   -0.13595E-01  2234   0.561E-01    0.272E+00
RMM:  18    -0.612967724943E+03   -0.22736E-01   -0.24163E-02  2057   0.362E-01    0.130E+00
RMM:  19    -0.612970892181E+03   -0.31672E-02   -0.13890E-02  1990   0.262E-01    0.117E+00
RMM:  20    -0.612972520049E+03   -0.16279E-02   -0.67910E-03  1989   0.205E-01    0.425E-01
RMM:  21    -0.612972999417E+03   -0.47937E-03   -0.34492E-03  2125   0.114E-01    0.295E-01
RMM:  22    -0.612974534441E+03   -0.15350E-02   -0.18292E-03  2223   0.899E-02    0.101E-01
RMM:  23    -0.612975072500E+03   -0.53806E-03   -0.43935E-04  2275   0.386E-02    0.933E-02
RMM:  24    -0.612976003343E+03   -0.93084E-03   -0.36791E-04  2025   0.403E-02    0.863E-02
RMM:  25    -0.612977202289E+03   -0.11989E-02   -0.59906E-04  2110   0.490E-02    0.830E-02
RMM:  26    -0.612978588347E+03   -0.13861E-02   -0.78547E-04  2223   0.559E-02    0.791E-02
RMM:  27    -0.612982029859E+03   -0.34415E-02   -0.63532E-03  2880   0.156E-01    0.746E-02
RMM:  28    -0.612983714976E+03   -0.16851E-02   -0.19854E-03  2529   0.867E-02    0.738E-02
RMM:  29    -0.612985741461E+03   -0.20265E-02   -0.54140E-03  2875   0.143E-01    0.883E-02
RMM:  30    -0.612986982032E+03   -0.12406E-02   -0.47994E-03  2794   0.134E-01    0.957E-02
RMM:  31    -0.612987351103E+03   -0.36907E-03   -0.23381E-04  2035   0.343E-02    0.559E-02
RMM:  32    -0.612987649727E+03   -0.29862E-03   -0.20774E-03  2655   0.891E-02    0.259E-02
RMM:  33    -0.612987796129E+03   -0.14640E-03   -0.37518E-04  2133   0.398E-02    0.255E-02
RMM:  34    -0.612987825511E+03   -0.29383E-04   -0.67968E-05  1618   0.193E-02    0.940E-03
RMM:  35    -0.612987831843E+03   -0.63323E-05   -0.13556E-05  1200   0.991E-03
   1 F= -.63293514E+03 E0= -.63293514E+03  d E =-.201456E-13  mag=    80.9992
