 vasp.6.3.2 27Jun22 (build Dec 21 2022 11:15:52) complex                        
  
 executed on Aspire2aVTSTlibbeefS date 2024.03.18  14:48:52
 running  128 mpi-ranks, with    1 threads/rank
 distrk:  each k-point on  128 cores,    1 groups
 distr:  one band on NCORE=  16 cores,    8 groups


--------------------------------------------------------------------------------------------------------


 INCAR:
   ENCUT = 500.000000
   KSPACING = 1.200000
   SIGMA = 0.050000
   EDIFF = 1.00e-05
   ALGO = Fast
   GGA = PE
   PREC = High
   ICHARG = 1
   ISMEAR = 0
   ISPIN = 2
   ISTART = 0
   KPAR = 1
   LDAUTYPE = 2
   LMAXMIX = 4
   LORBIT = 11
   NELM = 800
   NELMIN = 4
   NPAR = 8
   NSIM = 8
   NSW = 0
   NUPDOWN = 81
   IVDW = 11
   LCHARG = .FALSE.
   LDAU = .TRUE.
   LWAVE = .FALSE.
   LREAL = .FALSE.
   LDAUL = -1 -1 2 2 2
   LDAUU = 0.000 0.000 4.840 5.140 6.370
   LDAUJ = 0.000 0.000 0.000 0.000 0.000
   MAGMOM = 81*0.0000 18*4.0000 9*3.0000

 POTCAR:    PAW_PBE Li 17Jan2003                  
 POTCAR:    PAW_PBE O 08Apr2002                   
 POTCAR:    PAW_PBE Mn 06Sep2000                  
 POTCAR:    PAW_PBE Co 02Aug2007                  
 POTCAR:    PAW_PBE Ni 02Aug2007                  
 POTCAR:    PAW_PBE Li 17Jan2003                  
   VRHFIN =Li: s1p0                                                                                 
   LEXCH  = PE                                                                                      
   EATOM  =     5.3001 eV,    0.3895 Ry                                                             
                                                                                                    
   TITEL  = PAW_PBE Li 17Jan2003                                                                    
   LULTRA =        F    use ultrasoft PP ?                                                          
   IUNSCR =        1    unscreen: 0-lin 1-nonlin 2-no                                               
   RPACOR =    1.500    partial core radius                                                         
   POMASS =    7.010; ZVAL   =    1.000    mass and valenz                                          
   RCORE  =    2.050    outmost cutoff radius                                                       
   RWIGS  =    2.600; RWIGS  =    1.376    wigner-seitz radius (au A)                               
   ENMAX  =  140.000; ENMIN  =  100.000 eV                                                          
   ICORE  =        2    local potential                                                             
   LCOR   =        T    correct aug charges                                                         
   LPAW   =        T    paw PP                                                                      
   EAUG   =  331.638                                                                                
   DEXC   =    0.000                                                                                
   RMAX   =    2.098    core radius for proj-oper                                                   
   RAUG   =    1.300    factor for augmentation sphere                                              
   RDEP   =    2.094    radius for radial grids                                                     
   RDEPT  =    1.810    core radius for aug-charge                                                  
                                                                                                    
   Atomic configuration                                                                             
    4 entries                                                                                       
     n  l   j            E        occ.                                                              
     1  0  0.50       -51.8549   2.0000                                                             
     2  0  0.50        -2.8742   1.0000                                                             
     2  1  0.50        -1.3606   0.0000                                                             
     3  2  1.50        -1.3606   0.0000                                                             
   Description                                                                                      
     l       E           TYP  RCUT    TYP  RCUT                                                     
     0     -2.8742052     23  2.050                                                                 
     0     27.2116520     23  2.050                                                                 
     1     -1.3605826     23  2.050                                                                 
     2     -1.3605826     23  2.050                                                                 
  local pseudopotential read in
  partial core-charges read in
  partial kinetic energy density read in
  atomic valenz-charges read in
  non local Contribution for L=           0  read in
    real space projection operators read in
  non local Contribution for L=           0  read in
    real space projection operators read in
  non local Contribution for L=           1  read in
    real space projection operators read in
    PAW grid and wavefunctions read in
 
   number of l-projection  operators is LMAX  =           3
   number of lm-projection operators is LMMAX =           5
 
 POTCAR:    PAW_PBE O 08Apr2002                   
   VRHFIN =O: s2p4                                                                                  
   LEXCH  = PE                                                                                      
   EATOM  =   432.3788 eV,   31.7789 Ry                                                             
                                                                                                    
   TITEL  = PAW_PBE O 08Apr2002                                                                     
   LULTRA =        F    use ultrasoft PP ?                                                          
   IUNSCR =        1    unscreen: 0-lin 1-nonlin 2-no                                               
   RPACOR =    1.200    partial core radius                                                         
   POMASS =   16.000; ZVAL   =    6.000    mass and valenz                                          
   RCORE  =    1.520    outmost cutoff radius                                                       
   RWIGS  =    1.550; RWIGS  =    0.820    wigner-seitz radius (au A)                               
   ENMAX  =  400.000; ENMIN  =  300.000 eV                                                          
   ICORE  =        2    local potential                                                             
   LCOR   =        T    correct aug charges                                                         
   LPAW   =        T    paw PP                                                                      
   EAUG   =  605.392                                                                                
   DEXC   =    0.000                                                                                
   RMAX   =    1.553    core radius for proj-oper                                                   
   RAUG   =    1.300    factor for augmentation sphere                                              
   RDEP   =    1.550    radius for radial grids                                                     
   RDEPT  =    1.329    core radius for aug-charge                                                  
                                                                                                    
   Atomic configuration                                                                             
    4 entries                                                                                       
     n  l   j            E        occ.                                                              
     1  0  0.50      -514.6923   2.0000                                                             
     2  0  0.50       -23.9615   2.0000                                                             
     2  1  0.50        -9.0305   4.0000                                                             
     3  2  1.50        -9.5241   0.0000                                                             
   Description                                                                                      
     l       E           TYP  RCUT    TYP  RCUT                                                     
     0    -23.9615318     23  1.200                                                                 
     0     -9.5240782     23  1.200                                                                 
     1     -9.0304911     23  1.520                                                                 
     1      8.1634956     23  1.520                                                                 
     2     -9.5240782      7  1.500                                                                 
  local pseudopotential read in
  partial core-charges read in
  partial kinetic energy density read in
  kinetic energy density of atom read in
  atomic valenz-charges read in
  non local Contribution for L=           0  read in
    real space projection operators read in
  non local Contribution for L=           0  read in
    real space projection operators read in
  non local Contribution for L=           1  read in
    real space projection operators read in
  non local Contribution for L=           1  read in
    real space projection operators read in
    PAW grid and wavefunctions read in
 
   number of l-projection  operators is LMAX  =           4
   number of lm-projection operators is LMMAX =           8
 
 POTCAR:    PAW_PBE Mn 06Sep2000                  
   VRHFIN =Mn: d6 s1                                                                                
   LEXCH  = PE                                                                                      
   EATOM  =   416.7541 eV,   30.6306 Ry                                                             
                                                                                                    
   TITEL  = PAW_PBE Mn 06Sep2000                                                                    
   LULTRA =        F    use ultrasoft PP ?                                                          
   IUNSCR =        1    unscreen: 0-lin 1-nonlin 2-no                                               
   RPACOR =    2.000    partial core radius                                                         
   POMASS =   54.938; ZVAL   =    7.000    mass and valenz                                          
   RCORE  =    2.300    outmost cutoff radius                                                       
   RWIGS  =    2.500; RWIGS  =    1.323    wigner-seitz radius (au A)                               
   ENMAX  =  269.864; ENMIN  =  202.398 eV                                                          
   RCLOC  =    1.725    cutoff for local pot                                                        
   LCOR   =        T    correct aug charges                                                         
   LPAW   =        T    paw PP                                                                      
   EAUG   =  500.711                                                                                
   DEXC   =    0.000                                                                                
   RMAX   =    2.343    core radius for proj-oper                                                   
   RAUG   =    1.300    factor for augmentation sphere                                              
   RDEP   =    2.338    radius for radial grids                                                     
   RDEPT  =    1.911    core radius for aug-charge                                                  
                                                                                                    
   Atomic configuration                                                                             
    9 entries                                                                                       
     n  l   j            E        occ.                                                              
     1  0  0.50     -6424.8288   2.0000                                                             
     2  0  0.50      -739.1154   2.0000                                                             
     2  1  1.50      -625.3949   6.0000                                                             
     3  0  0.50       -81.6100   2.0000                                                             
     3  1  1.50       -50.4667   6.0000                                                             
     3  2  2.50        -3.3745   6.0000                                                             
     4  0  0.50        -4.1331   1.0000                                                             
     4  1  0.50        -4.0817   0.0000                                                             
     4  3  2.50        -1.3606   0.0000                                                             
   Description                                                                                      
     l       E           TYP  RCUT    TYP  RCUT                                                     
     2     -3.3744664     23  2.300                                                                 
     2     -4.7350490     23  2.300                                                                 
     0     -4.1331408     23  2.300                                                                 
     0      7.6656614     23  2.300                                                                 
     1     -2.7211652     23  2.300                                                                 
     1     20.4087390     23  2.300                                                                 
  local pseudopotential read in
  partial core-charges read in
  partial kinetic energy density read in
  atomic valenz-charges read in
  non local Contribution for L=           2  read in
    real space projection operators read in
  non local Contribution for L=           2  read in
    real space projection operators read in
  non local Contribution for L=           0  read in
    real space projection operators read in
  non local Contribution for L=           0  read in
    real space projection operators read in
  non local Contribution for L=           1  read in
    real space projection operators read in
  non local Contribution for L=           1  read in
    real space projection operators read in
    PAW grid and wavefunctions read in
 
   number of l-projection  operators is LMAX  =           6
   number of lm-projection operators is LMMAX =          18
 
 POTCAR:    PAW_PBE Co 02Aug2007                  
   VRHFIN =Co: d8 s1                                                                                
   LEXCH  = PE                                                                                      
   EATOM  =   813.3670 eV,   59.7808 Ry                                                             
                                                                                                    
   TITEL  = PAW_PBE Co 02Aug2007                                                                    
   LULTRA =        F    use ultrasoft PP ?                                                          
   IUNSCR =        1    unscreen: 0-lin 1-nonlin 2-no                                               
   RPACOR =    2.000    partial core radius                                                         
   POMASS =   58.933; ZVAL   =    9.000    mass and valenz                                          
   RCORE  =    2.300    outmost cutoff radius                                                       
   RWIGS  =    2.460; RWIGS  =    1.302    wigner-seitz radius (au A)                               
   ENMAX  =  267.968; ENMIN  =  200.976 eV                                                          
   RCLOC  =    1.203    cutoff for local pot                                                        
   LCOR   =        T    correct aug charges                                                         
   LPAW   =        T    paw PP                                                                      
   EAUG   =  477.818                                                                                
   DEXC   =    0.000                                                                                
   RMAX   =    2.360    core radius for proj-oper                                                   
   RAUG   =    1.300    factor for augmentation sphere                                              
   RDEP   =    2.393    radius for radial grids                                                     
   RDEPT  =    1.864    core radius for aug-charge                                                  
                                                                                                    
   Atomic configuration                                                                             
    9 entries                                                                                       
     n  l   j            E        occ.                                                              
     1  0  0.50     -7587.6674   2.0000                                                             
     2  0  0.50      -893.6084   2.0000                                                             
     2  1  1.50      -764.5805   6.0000                                                             
     3  0  0.50       -97.5973   2.0000                                                             
     3  1  1.50       -60.9648   6.0000                                                             
     3  2  2.50        -4.2382   8.0000                                                             
     4  0  0.50        -4.3746   1.0000                                                             
     4  1  1.50        -4.0817   0.0000                                                             
     4  3  2.50        -1.3606   0.0000                                                             
   Description                                                                                      
     l       E           TYP  RCUT    TYP  RCUT                                                     
     2     -4.2382362     23  2.300                                                                 
     2     -5.5988188     23  2.300                                                                 
     0     -4.3745797     23  2.300                                                                 
     0      5.7660125     23  2.300                                                                 
     1     -2.7211652     23  2.300                                                                 
     1     16.9860234     23  2.300                                                                 
  local pseudopotential read in
  partial core-charges read in
  partial kinetic energy density read in
  atomic valenz-charges read in
  non local Contribution for L=           2  read in
    real space projection operators read in
  non local Contribution for L=           2  read in
    real space projection operators read in
  non local Contribution for L=           0  read in
    real space projection operators read in
  non local Contribution for L=           0  read in
    real space projection operators read in
  non local Contribution for L=           1  read in
    real space projection operators read in
  non local Contribution for L=           1  read in
    real space projection operators read in
    PAW grid and wavefunctions read in
 
   number of l-projection  operators is LMAX  =           6
   number of lm-projection operators is LMMAX =          18
 
 POTCAR:    PAW_PBE Ni 02Aug2007                  
   VRHFIN =Ni:                                                                                      
   LEXCH  = PE                                                                                      
   EATOM  =  1077.6739 eV,   79.2068 Ry                                                             
                                                                                                    
   TITEL  = PAW_PBE Ni 02Aug2007                                                                    
   LULTRA =        F    use ultrasoft PP ?                                                          
   IUNSCR =        1    unscreen: 0-lin 1-nonlin 2-no                                               
   RPACOR =    2.000    partial core radius                                                         
   POMASS =   58.690; ZVAL   =   10.000    mass and valenz                                          
   RCORE  =    2.300    outmost cutoff radius                                                       
   RWIGS  =    2.430; RWIGS  =    1.286    wigner-seitz radius (au A)                               
   ENMAX  =  269.532; ENMIN  =  202.149 eV                                                          
   RCLOC  =    1.201    cutoff for local pot                                                        
   LCOR   =        T    correct aug charges                                                         
   LPAW   =        T    paw PP                                                                      
   EAUG   =  544.565                                                                                
   DEXC   =    0.000                                                                                
   RMAX   =    2.357    core radius for proj-oper                                                   
   RAUG   =    1.300    factor for augmentation sphere                                              
   RDEP   =    2.390    radius for radial grids                                                     
   RDEPT  =    1.838    core radius for aug-charge                                                  
                                                                                                    
   Atomic configuration                                                                             
    9 entries                                                                                       
     n  l   j            E        occ.                                                              
     1  0  0.50     -8206.4253   2.0000                                                             
     2  0  0.50      -976.1748   2.0000                                                             
     2  1  1.50      -839.0571   6.0000                                                             
     3  0  0.50      -105.9991   2.0000                                                             
     3  1  1.50       -66.4603   6.0000                                                             
     3  2  2.50        -4.6458   9.0000                                                             
     4  0  0.50        -4.4926   1.0000                                                             
     4  1  1.50        -4.0817   0.0000                                                             
     4  3  2.50        -1.3606   0.0000                                                             
   Description                                                                                      
     l       E           TYP  RCUT    TYP  RCUT                                                     
     2     -4.6457903     23  2.300                                                                 
     2     -6.0063729     23  2.300                                                                 
     0     -4.4925590     23  2.300                                                                 
     0      5.0102601     23  2.300                                                                 
     1     -2.7211652     23  2.300                                                                 
     1     16.5183231     23  2.300                                                                 
  local pseudopotential read in
  partial core-charges read in
  partial kinetic energy density read in
  atomic valenz-charges read in
  non local Contribution for L=           2  read in
    real space projection operators read in
  non local Contribution for L=           2  read in
    real space projection operators read in
  non local Contribution for L=           0  read in
    real space projection operators read in
  non local Contribution for L=           0  read in
    real space projection operators read in
  non local Contribution for L=           1  read in
    real space projection operators read in
  non local Contribution for L=           1  read in
    real space projection operators read in
    PAW grid and wavefunctions read in
 
   number of l-projection  operators is LMAX  =           6
   number of lm-projection operators is LMMAX =          18
 
 -----------------------------------------------------------------------------
|                                                                             |
|               ----> ADVICE to this user running VASP <----                  |
|                                                                             |
|     You have a (more or less) 'large supercell' and for larger cells it     |
|     might be more efficient to use real-space projection operators.         |
|     Therefore, try LREAL= Auto in the INCAR file.                           |
|     Mind: For very accurate calculation, you might also keep the            |
|     reciprocal projection scheme (i.e. LREAL=.FALSE.).                      |
|                                                                             |
 -----------------------------------------------------------------------------

  PAW_PBE Li 17Jan2003                  :
 energy of atom  1       EATOM=   -5.3001
 kinetic energy error for atom=    0.0000 (will be added to EATOM!!)
  PAW_PBE O 08Apr2002                   :
 energy of atom  2       EATOM= -432.3788
 kinetic energy error for atom=    0.0224 (will be added to EATOM!!)
  PAW_PBE Mn 06Sep2000                  :
 energy of atom  3       EATOM= -416.7541
 kinetic energy error for atom=    0.0024 (will be added to EATOM!!)
  PAW_PBE Co 02Aug2007                  :
 energy of atom  4       EATOM= -813.3670
 kinetic energy error for atom=    0.0028 (will be added to EATOM!!)
  PAW_PBE Ni 02Aug2007                  :
 energy of atom  5       EATOM=-1077.6739
 kinetic energy error for atom=    0.0030 (will be added to EATOM!!)
 
 
 POSCAR: Li  O Mn Co Ni
  positions in cartesian coordinates
  No initial velocities read in
 exchange correlation table for  LEXCH =        8
   RHO(1)=    0.500       N(1)  =     2000
   RHO(2)=  100.500       N(2)  =     4000

 VTST: version 4.2, (08/11/21)

 CHAIN: initializing optimizer
 
 OPT: Using VASP Dynamics algorithm
 CHAIN: Read ICHAIN            0
 
 POSCAR: Li  O Mn Co Ni
  positions in cartesian coordinates
  No initial velocities read in
 


--------------------------------------------------------------------------------------------------------


 ion  position               nearest neighbor table
   1  0.000  0.004  0.000-  69 2.08  76 2.08  40 2.10  33 2.10  81 2.20  28 2.20   7 2.88  13 2.88
                            10 2.91 102 2.92 100 2.92   4 2.93  25 2.93  89 2.94  82 2.94  97 2.95
   2  0.224  0.111  0.333-  35 2.07  36 2.07  53 2.15  66 2.15  29 2.21  30 2.21   5 2.86   8 2.91
                            14 2.93  20 2.93  83 2.93  84 2.93 100 2.95 101 2.95  97 2.95  96 2.95
   3  0.107  0.219  0.667-  56 2.08  49 2.08  32 2.10  43 2.10  50 2.20  31 2.20  21 2.88   9 2.88
                            27 2.91 102 2.92 101 2.92   6 2.93  12 2.93  82 2.94  86 2.94  94 2.95
   4  0.333  0.002  0.000-  28 2.07  39 2.07  34 2.15  69 2.15  75 2.21  64 2.21  13 2.86  22 2.91
                            16 2.93   1 2.93  82 2.93  83 2.93 107 2.95 106 2.95  97 2.95  91 2.95
   5  0.550  0.111  0.333-  59 2.07  72 2.07  35 2.12  36 2.12  41 2.23  42 2.23   2 2.86  14 2.88
                            20 2.88  83 2.92  84 2.92 107 2.94 105 2.94  17 2.95  23 2.95  92 2.95
   6  0.443  0.220  0.667-  38 2.07  31 2.07  56 2.15  37 2.15  62 2.21  55 2.21  21 2.86  18 2.91
                             3 2.93  24 2.93  82 2.93  84 2.93 103 2.95 105 2.95  91 2.95  96 2.95
   7  0.667  0.995  0.000-  75 2.07  40 2.07  81 2.12  70 2.12  34 2.23  45 2.23  25 2.86  22 2.88
                             1 2.88  89 2.92  88 2.92 102 2.94 107 2.94   4 2.95  10 2.95  91 2.95
   8  0.893  0.111  0.333-  41 2.08  42 2.08  29 2.10  30 2.10  47 2.20  78 2.20  11 2.88  26 2.88
                             2 2.91 100 2.92 101 2.92  17 2.93  23 2.93  89 2.94  86 2.94  92 2.95
   9  0.783  0.228  0.667-  62 2.07  43 2.07  50 2.12  61 2.12  44 2.23  37 2.23  12 2.86  18 2.88
                             3 2.88  87 2.92  86 2.92 102 2.94 105 2.94  27 2.95   6 2.95  91 2.95
  10  0.000  0.335  0.000-  58 2.07  51 2.07  46 2.15  45 2.15  33 2.21  40 2.21  19 2.86   1 2.91
                            22 2.93  16 2.93  87 2.93  85 2.93 100 2.95 102 2.95  92 2.95  94 2.95
  11  0.217  0.444  0.333-  71 2.07  30 2.07  47 2.12  48 2.12  53 2.23  54 2.23  17 2.86   8 2.88
                            20 2.88  85 2.92  86 2.92 100 2.94 108 2.94   2 2.95  23 2.95  95 2.95
  12  0.109  0.554  0.667-  50 2.07  61 2.07  68 2.15  49 2.15  74 2.21  67 2.21   9 2.86  24 2.91
                             3 2.93  18 2.93  87 2.93  86 2.93 106 2.95 108 2.95  94 2.95  98 2.95
  13  0.333  0.328  0.000-  33 2.07  52 2.07  39 2.12  28 2.12  46 2.23  57 2.23   4 2.86  16 2.88
                             1 2.88  83 2.92  82 2.92 103 2.94 100 2.94  25 2.95  10 2.95  94 2.95
  14  0.559  0.444  0.333-  53 2.08  54 2.08  59 2.10  60 2.10  77 2.20  36 2.20   5 2.88  26 2.88
                            17 2.91 104 2.92 105 2.92   2 2.93  23 2.93  83 2.94  90 2.94  95 2.95
  15  0.450  0.561  0.667-  74 2.07  55 2.07  80 2.12  73 2.12  56 2.23  49 2.23  27 2.86  24 2.88
                            18 2.88  88 2.92  90 2.92 103 2.94 108 2.94  12 2.95   6 2.95  94 2.95
  16  0.667  0.337  0.000-  45 2.08  34 2.08  52 2.10  63 2.10  39 2.20  58 2.20  13 2.88  19 2.88
                            25 2.91 103 2.92 104 2.92   4 2.93  10 2.93  83 2.94  87 2.94  92 2.95
  17  0.891  0.444  0.333-  47 2.07  48 2.07  65 2.15  42 2.15  59 2.21  60 2.21  11 2.86  14 2.91
                             8 2.93  20 2.93  85 2.93  86 2.93 104 2.95 105 2.95  92 2.95  98 2.95
  18  0.774  0.552  0.667-  68 2.08  79 2.08  62 2.10  55 2.10  80 2.20  61 2.20   9 2.88  15 2.88
                             6 2.91 103 2.92 105 2.92  27 2.93  12 2.93  87 2.94  90 2.94  99 2.95
  19  0.000  0.661  0.000-  63 2.07  64 2.07  51 2.12  58 2.12  76 2.23  69 2.23  10 2.86  16 2.88
                            22 2.88  85 2.92  87 2.92 106 2.94 104 2.94   4 2.95  25 2.95  99 2.95
  20  0.226  0.778  0.333-  65 2.08  66 2.08  71 2.10  72 2.10  35 2.20  48 2.20  11 2.88   5 2.88
                            23 2.91 107 2.92 108 2.92   2 2.93  17 2.93  85 2.94  84 2.94  97 2.95
  21  0.117  0.894  0.667-  32 2.07  67 2.07  38 2.12  31 2.12  68 2.23  79 2.23   6 2.86  24 2.88
                             3 2.88  82 2.92  84 2.92 106 2.94 101 2.94  12 2.95  27 2.95  99 2.95
  22  0.333  0.670  0.000-  57 2.08  46 2.08  64 2.10  75 2.10  51 2.20  70 2.20   7 2.88  19 2.88
                             4 2.91 106 2.92 107 2.92  25 2.93  10 2.93  85 2.94  88 2.94  95 2.95
  23  0.557  0.778  0.333-  77 2.07  78 2.07  41 2.15  54 2.15  71 2.21  72 2.21  26 2.86  20 2.91
                             8 2.93  14 2.93  89 2.93  90 2.93 107 2.95 108 2.95  95 2.95  93 2.95
  24  0.441  0.885  0.667-  44 2.08  37 2.08  74 2.10  67 2.10  38 2.20  73 2.20  15 2.88  21 2.88
                            12 2.91 106 2.92 108 2.92   6 2.93  27 2.93  88 2.94  84 2.94  91 2.95
  25  0.667  0.669  0.000-  70 2.07  81 2.07  76 2.15  57 2.15  63 2.21  52 2.21   7 2.86  16 2.91
                            22 2.93   1 2.93  88 2.93  89 2.93 104 2.95 103 2.95  95 2.95  99 2.95
  26  0.883  0.778  0.333-  29 2.07  60 2.07  77 2.12  78 2.12  65 2.23  66 2.23  23 2.86  14 2.88
                             8 2.88  89 2.92  90 2.92 104 2.94 101 2.94  17 2.95   2 2.95  97 2.95
  27  0.776  0.887  0.667-  80 2.07  73 2.07  44 2.15  79 2.15  32 2.21  43 2.21  15 2.86   3 2.91
                            18 2.93  24 2.93  88 2.93  90 2.93 102 2.95 101 2.95  99 2.95  93 2.95
  28  0.232  0.110  0.092-  83 1.95  97 2.01 100 2.07   4 2.07  13 2.12   1 2.20
  29  0.989  0.990  0.244-  89 1.95  97 2.03  26 2.07 100 2.08   8 2.10   2 2.21
  30  0.109  0.232  0.423-  86 1.95  96 2.03  11 2.07 101 2.08   8 2.10   2 2.21
  31  0.233  0.112  0.575-  84 1.95  96 2.01 101 2.07   6 2.07  21 2.12   3 2.20
  32  0.011  0.002  0.756-  82 1.95  99 2.03  21 2.07 102 2.08   3 2.10  27 2.21
  33  0.121  0.220  0.910-  82 1.95  94 2.03  13 2.07 102 2.08   1 2.10  10 2.21
  34  0.558  0.124  0.091-  83 1.95  92 1.99  16 2.08 107 2.09   4 2.15   7 2.23
  35  0.333  0.010  0.242-  83 1.95  97 2.01 107 2.07   2 2.07   5 2.12  20 2.20
  36  0.434  0.213  0.425-  84 1.95  96 2.01 105 2.07   2 2.07   5 2.12  14 2.20
  37  0.545  0.098  0.576-  84 1.95  93 1.99  24 2.08 105 2.09   6 2.15   9 2.23
  38  0.334  0.010  0.758-  82 1.95  91 2.01 106 2.07   6 2.07  21 2.12  24 2.20
  39  0.435  0.212  0.908-  82 1.95  91 2.01 103 2.07   4 2.07  13 2.12  16 2.20
  40  0.879  0.100  0.090-  89 1.95  92 2.03   7 2.07 100 2.08   1 2.10  10 2.21
  41  0.679  0.002  0.243-  89 1.95  92 1.99   8 2.08 107 2.09  23 2.15   5 2.23
  42  0.788  0.220  0.424-  86 1.95  93 1.99   8 2.08 105 2.09  17 2.15   5 2.23
  43  0.891  0.123  0.577-  86 1.95  93 2.03   9 2.07 101 2.08   3 2.10  27 2.21
  44  0.654  0.990  0.757-  88 1.95  91 1.99  24 2.08 102 2.09  27 2.15   9 2.23
  45  0.775  0.232  0.909-  87 1.95  91 1.99  16 2.08 102 2.09  10 2.15   7 2.23
  46  0.225  0.457  0.091-  85 1.95  95 1.99  22 2.08 100 2.09  10 2.15  13 2.23
  47  0.999  0.343  0.242-  85 1.95  92 2.01 100 2.07  17 2.07  11 2.12   8 2.20
  48  0.101  0.546  0.425-  86 1.95  98 2.01 108 2.07  17 2.07  11 2.12  20 2.20
  49  0.212  0.432  0.576-  86 1.95  96 1.99   3 2.08 108 2.09  12 2.15  15 2.23
  50  0.001  0.344  0.758-  87 1.95  94 2.01 102 2.07  12 2.07   9 2.12   3 2.20
  51  0.102  0.545  0.908-  87 1.95  94 2.01 106 2.07  10 2.07  19 2.12  22 2.20
  52  0.546  0.433  0.090-  83 1.95  95 2.03  13 2.07 104 2.08  16 2.10  25 2.21
  53  0.346  0.336  0.243-  83 1.95  95 1.99  14 2.08 100 2.09   2 2.15  11 2.23
  54  0.455  0.553  0.424-  90 1.95  96 1.99  14 2.08 108 2.09  23 2.15  11 2.23
  55  0.557  0.456  0.577-  90 1.95  96 2.03  15 2.07 105 2.08  18 2.10   6 2.21
  56  0.321  0.323  0.757-  82 1.95  94 1.99   3 2.08 103 2.09   6 2.15  15 2.23
  57  0.442  0.566  0.909-  88 1.95  94 1.99  22 2.08 103 2.09  25 2.15  13 2.23
  58  0.898  0.444  0.092-  85 1.95  92 2.01 104 2.07  10 2.07  19 2.12  16 2.20
  59  0.655  0.324  0.244-  83 1.95  92 2.03   5 2.07 104 2.08  14 2.10  17 2.21
  60  0.776  0.565  0.423-  90 1.95  98 2.03  26 2.07 105 2.08  14 2.10  17 2.21
  61  0.899  0.445  0.575-  86 1.95  98 2.01 105 2.07  12 2.07   9 2.12  18 2.20
  62  0.678  0.335  0.756-  87 1.95  91 2.03   9 2.07 103 2.08  18 2.10   6 2.21
  63  0.787  0.554  0.910-  87 1.95  99 2.03  19 2.07 103 2.08  16 2.10  25 2.21
  64  0.213  0.766  0.090-  85 1.95  97 2.03  19 2.07 107 2.08  22 2.10   4 2.21
  65  0.013  0.669  0.243-  85 1.95  97 1.99  20 2.08 104 2.09  17 2.15  26 2.23
  66  0.121  0.886  0.424-  84 1.95  98 1.99  20 2.08 101 2.09   2 2.15  26 2.23
  67  0.224  0.789  0.577-  84 1.95  98 2.03  21 2.07 108 2.08  24 2.10  12 2.21
  68  0.987  0.656  0.757-  87 1.95  99 1.99  18 2.08 106 2.09  12 2.15  21 2.23
  69  0.109  0.899  0.909-  82 1.95  99 1.99   1 2.08 106 2.09   4 2.15  19 2.23
  70  0.565  0.777  0.092-  89 1.95  95 2.01 107 2.07  25 2.07   7 2.12  22 2.20
  71  0.322  0.657  0.244-  85 1.95  95 2.03  11 2.07 107 2.08  20 2.10  23 2.21
  72  0.443  0.899  0.423-  84 1.95  93 2.03   5 2.07 108 2.08  20 2.10  23 2.21
  73  0.566  0.779  0.575-  90 1.95  93 2.01 108 2.07  27 2.07  15 2.12  24 2.20
  74  0.345  0.668  0.756-  88 1.95  94 2.03  15 2.07 106 2.08  24 2.10  12 2.21
  75  0.454  0.887  0.910-  88 1.95  91 2.03   7 2.07 106 2.08  22 2.10   4 2.21
  76  0.891  0.790  0.091-  89 1.95  97 1.99   1 2.08 104 2.09  25 2.15  19 2.23
  77  0.666  0.676  0.242-  89 1.95  95 2.01 104 2.07  23 2.07  26 2.12  14 2.20
  78  0.767  0.879  0.425-  90 1.95  93 2.01 101 2.07  23 2.07  26 2.12   8 2.20
  79  0.879  0.765  0.576-  90 1.95  98 1.99  18 2.08 101 2.09  27 2.15  21 2.23
  80  0.667  0.677  0.758-  88 1.95  99 2.01 103 2.07  27 2.07  15 2.12  18 2.20
  81  0.768  0.879  0.908-  88 1.95  99 2.01 102 2.07  25 2.07   7 2.12   1 2.20
  82  0.222  0.111  0.833-  38 1.95  39 1.95  32 1.95  33 1.95  56 1.95  69 1.95  94 2.91  99 2.91
                            21 2.92  13 2.92 102 2.92 103 2.92 106 2.92   6 2.93   4 2.93   3 2.94
  83  0.445  0.222  0.167-  35 1.95  28 1.95  59 1.95  52 1.95  53 1.95  34 1.95  95 2.91  92 2.91
                             5 2.92  13 2.92 104 2.92 100 2.92 107 2.92   2 2.93   4 2.93  14 2.94
  84  0.333  1.000  0.500-  31 1.95  36 1.95  72 1.95  67 1.95  66 1.95  37 1.95  93 2.91  98 2.91
                             5 2.92  21 2.92 108 2.92 105 2.92 101 2.92   2 2.93   6 2.93  24 2.94
  85  0.111  0.556  0.167-  47 1.95  58 1.95  71 1.95  64 1.95  65 1.95  46 1.95  97 2.91  95 2.91
                            11 2.92  19 2.92 107 2.92 100 2.92 104 2.92  17 2.93  10 2.93  20 2.94
  86  0.000  0.333  0.500-  61 1.95  48 1.95  30 1.95  43 1.95  42 1.95  49 1.95  93 2.91  96 2.91
                            11 2.92   9 2.92 101 2.92 108 2.92 105 2.92  17 2.93  12 2.93   3 2.94
  87  0.889  0.444  0.833-  50 1.95  51 1.95  62 1.95  63 1.95  68 1.95  45 1.95  91 2.91  99 2.91
                             9 2.92  19 2.92 103 2.92 102 2.92 106 2.92  12 2.93  10 2.93  18 2.94
  88  0.555  0.778  0.833-  80 1.95  81 1.95  74 1.95  75 1.95  44 1.95  57 1.95  91 2.91  94 2.91
                            15 2.92   7 2.92 106 2.92 102 2.92 103 2.92  27 2.93  25 2.93  24 2.94
  89  0.778  0.889  0.167-  77 1.95  70 1.95  29 1.95  40 1.95  41 1.95  76 1.95  92 2.91  97 2.91
                            26 2.92   7 2.92 100 2.92 104 2.92 107 2.92  23 2.93  25 2.93   8 2.94
  90  0.667  0.667  0.500-  73 1.95  78 1.95  60 1.95  55 1.95  54 1.95  79 1.95  96 2.91  98 2.91
                            26 2.92  15 2.92 105 2.92 108 2.92 101 2.92  23 2.93  27 2.93  18 2.94
  91  0.558  0.111  0.833-  44 1.99  45 1.99  38 2.01  39 2.01  62 2.03  75 2.03 102 2.90  87 2.91
                            88 2.91 103 2.93 106 2.93  82 2.94   6 2.95   4 2.95   9 2.95   7 2.95
  92  0.776  0.220  0.167-  41 1.99  34 1.99  47 2.01  58 2.01  59 2.03  40 2.03 107 2.90  89 2.91
                            83 2.91 104 2.93 100 2.93  85 2.94  17 2.95  10 2.95   5 2.95   7 2.95
  93  0.667  0.002  0.500-  37 1.99  42 1.99  78 2.01  73 2.01  43 2.03  72 2.03 105 2.90  84 2.91
                            86 2.91 108 2.93 101 2.93  90 2.94  27 2.95  23 2.95   5 2.95   9 2.95
  94  0.224  0.444  0.833-  56 1.99  57 1.99  50 2.01  51 2.01  74 2.03  33 2.03 103 2.90  82 2.91
                            88 2.91 102 2.93 106 2.93  87 2.94  12 2.95  10 2.95  15 2.95  13 2.95
  95  0.442  0.554  0.167-  53 1.99  46 1.99  77 2.01  70 2.01  71 2.03  52 2.03 100 2.90  85 2.91
                            83 2.91 107 2.93 104 2.93  89 2.94  23 2.95  25 2.95  11 2.95  13 2.95
  96  0.333  0.335  0.500-  49 1.99  54 1.99  36 2.01  31 2.01  55 2.03  30 2.03 108 2.90  90 2.91
                            86 2.91 105 2.93 101 2.93  84 2.94   6 2.95   2 2.95  11 2.95  15 2.95
  97  0.109  0.887  0.167-  65 1.99  76 1.99  35 2.01  28 2.01  29 2.03  64 2.03 104 2.90  85 2.91
                            89 2.91 107 2.93 100 2.93  83 2.94   2 2.95   4 2.95  26 2.95  19 2.95
  98  0.000  0.669  0.500-  79 1.99  66 1.99  48 2.01  61 2.01  67 2.03  60 2.03 101 2.90  90 2.91
                            84 2.91 105 2.93 108 2.93  86 2.94  12 2.95  17 2.95  26 2.95  21 2.95
  99  0.891  0.778  0.833-  68 1.99  69 1.99  80 2.01  81 2.01  32 2.03  63 2.03 106 2.90  87 2.91
                            82 2.91 103 2.93 102 2.93  88 2.94  27 2.95  25 2.95  21 2.95  19 2.95
 100  0.111  0.222  0.167-  47 2.07  28 2.07  29 2.08  40 2.08  53 2.09  46 2.09  95 2.90  89 2.92
                            83 2.92  85 2.92   8 2.92   1 2.92  97 2.93  92 2.93  11 2.94  13 2.94
 101  0.000  1.000  0.500-  78 2.07  31 2.07  43 2.08  30 2.08  66 2.09  79 2.09  98 2.90  86 2.92
                            90 2.92  84 2.92   8 2.92   3 2.92  96 2.93  93 2.93  21 2.94  26 2.94
 102  0.889  0.111  0.833-  50 2.07  81 2.07  32 2.08  33 2.08  44 2.09  45 2.09  91 2.90  82 2.92
                            87 2.92  88 2.92   3 2.92   1 2.92  94 2.93  99 2.93   9 2.94   7 2.94
 103  0.555  0.444  0.833-  80 2.07  39 2.07  62 2.08  63 2.08  56 2.09  57 2.09  94 2.90  87 2.92
                            82 2.92  88 2.92  18 2.92  16 2.92  91 2.93  99 2.93  15 2.94  13 2.94
 104  0.778  0.556  0.167-  77 2.07  58 2.07  59 2.08  52 2.08  65 2.09  76 2.09  97 2.90  83 2.92
                            89 2.92  85 2.92  14 2.92  16 2.92  92 2.93  95 2.93  26 2.94  19 2.94
 105  0.667  0.333  0.500-  36 2.07  61 2.07  55 2.08  60 2.08  42 2.09  37 2.09  93 2.90  90 2.92
                            84 2.92  86 2.92  14 2.92  18 2.92  96 2.93  98 2.93   9 2.94   5 2.94
 106  0.222  0.778  0.833-  38 2.07  51 2.07  74 2.08  75 2.08  68 2.09  69 2.09  99 2.90  88 2.92
                            82 2.92  87 2.92  24 2.92  22 2.92  94 2.93  91 2.93  21 2.94  19 2.94
 107  0.445  0.889  0.167-  35 2.07  70 2.07  71 2.08  64 2.08  41 2.09  34 2.09  92 2.90  85 2.92
                            83 2.92  89 2.92  20 2.92  22 2.92  95 2.93  97 2.93   5 2.94   7 2.94
 108  0.333  0.667  0.500-  48 2.07  73 2.07  67 2.08  72 2.08  54 2.09  49 2.09  96 2.90  84 2.92
                            90 2.92  86 2.92  20 2.92  24 2.92  93 2.93  98 2.93  15 2.94  11 2.94
 
  LATTYP: Found a hexagonal cell.
 ALAT       =     8.7630515583
 C/A-ratio  =     1.6476112941
  
  Lattice vectors:
  
 A1 = (   7.5890252642,  -4.3815257792,   0.0000000000)
 A2 = (   0.0000000000,   8.7630515583,   0.0000000000)
 A3 = (   0.0000000000,   0.0000000000,  14.4381027186)


Analysis of symmetry for initial positions (statically):
=====================================================================
 Subroutine PRICEL returns following result:
 
  LATTYP: Found a hexagonal cell.
 ALAT       =     5.0593501761
 C/A-ratio  =     2.8537464726
  
  Lattice vectors:
  
 A1 = (  -5.0593501761,   0.0000000000,   0.0000000000)
 A2 = (   2.5296750881,  -4.3815257792,   0.0000000000)
 A3 = (   0.0000000000,   0.0000000000,  14.4381027186)
 
   3 primitive cells build up your supercell.
 

 Routine SETGRP: Setting up the symmetry group for a 
 hexagonal supercell.


 Subroutine GETGRP returns: Found  6 space group operations
 (whereof  2 operations were pure point group operations)
 out of a pool of 24 trial point group operations.


The static configuration has the point symmetry C_2 .
 The point group associated with its full space group is D_3 .


Analysis of symmetry for dynamics (positions and initial velocities):
=====================================================================
 Subroutine PRICEL returns following result:
 
  LATTYP: Found a hexagonal cell.
 ALAT       =     5.0593501761
 C/A-ratio  =     2.8537464726
  
  Lattice vectors:
  
 A1 = (  -5.0593501761,   0.0000000000,   0.0000000000)
 A2 = (   2.5296750881,  -4.3815257792,   0.0000000000)
 A3 = (   0.0000000000,   0.0000000000,  14.4381027186)
 
   3 primitive cells build up your supercell.
 

 Routine SETGRP: Setting up the symmetry group for a 
 hexagonal supercell.


 Subroutine GETGRP returns: Found  6 space group operations
 (whereof  2 operations were pure point group operations)
 out of a pool of 24 trial point group operations.


The dynamic configuration has the point symmetry C_2 .
 The point group associated with its full space group is D_3 .


Analysis of structural, dynamic, and magnetic symmetry:
=====================================================================
 Subroutine PRICEL returns following result:
 
  LATTYP: Found a hexagonal cell.
 ALAT       =     5.0593501761
 C/A-ratio  =     2.8537464726
  
  Lattice vectors:
  
 A1 = (  -5.0593501761,   0.0000000000,   0.0000000000)
 A2 = (   2.5296750881,  -4.3815257792,   0.0000000000)
 A3 = (   0.0000000000,   0.0000000000,  14.4381027186)
 
   3 primitive cells build up your supercell.
 

 Routine SETGRP: Setting up the symmetry group for a 
 hexagonal supercell.


 Subroutine GETGRP returns: Found  6 space group operations
 (whereof  2 operations were pure point group operations)
 out of a pool of 24 trial point group operations.


The overall configuration has the point symmetry C_2 .
 The point group associated with its full space group is D_3 .


 Subroutine INISYM returns: Found  6 space group operations
 (whereof  2 operations are pure point group operations),
 and found     3 'primitive' translations


----------------------------------------------------------------------------------------

                                     Primitive cell                                     

  volume of cell :     320.0591

  direct lattice vectors                    reciprocal lattice vectors
    -5.059350176  0.000000000  0.000000000    -0.197653842 -0.114115499  0.000000000
     2.529675088 -4.381525779  0.000000000    -0.000000000 -0.228230998  0.000000000
     0.000000000  0.000000000 14.438102719     0.000000000  0.000000000  0.069261178

  length of vectors
     5.059350176  5.059350176 14.438102719     0.228230998  0.228230998  0.069261178

  position of ions in fractional coordinates (direct lattice)
     0.996367604  0.992735207  0.000000000
     0.664791065  0.001875605  0.333333330
     0.673931460  0.670299060  0.666666670
     0.664791065  0.329582130  0.000000000
     0.338729259  0.327937411  0.333333330
     0.337084536  0.001875598  0.666666670
     0.338729259  0.677458519  0.000000000
     0.996367604  0.670299066  0.333333330
     0.989208148  0.327937404  0.666666670
     0.657959407  0.011166498  0.091640915
     0.021171975  0.007859027  0.243670535
     0.658807639  0.645494689  0.422996135
     0.655500172  0.008707263  0.575025745
     0.986687052  0.007859027  0.756329465
     0.658807639  0.679979611  0.910337205
     0.318156031  0.310446405  0.090710984
     0.657959407  0.313459578  0.241692415
     0.353207088  0.008707256  0.424974255
     0.356220265  0.348510639  0.575955676
     0.655500172  0.313459578  0.758307585
     0.353207088  0.011166492  0.908359085
     0.021171975  0.679979618  0.089662795
     0.318156031  0.674376296  0.242622346
     0.992290371  0.348510632  0.424044324
     0.986687052  0.645494695  0.577003865
     0.356220265  0.674376296  0.757377654
     0.992290371  0.310446398  0.909289016
     0.666787964  0.999878706  0.833333330
     0.333090738  0.999878699  0.166666670
     0.666787964  0.333575929  0.500000000
     0.331306511  0.335360159  0.833333330
     0.004053645  0.335360153  0.166666670
     0.331306511  0.662613021  0.500000000
     0.666548369  0.666607515  0.166666670
     0.000059149  0.000118297  0.500000000
     0.000059149  0.666607521  0.833333330

  ion indices of the primitive-cell ions
   primitive index   ion index
                 1           1
                 2           2
                 3           3
                 4          10
                 5          26
                 6          27
                 7           7
                 8           8
                 9          21
                10          28
                11          29
                12          30
                13          31
                14          32
                15          33
                16          76
                17          35
                18          78
                19          79
                20          38
                21          81
                22          40
                23          41
                24          66
                25          43
                26          44
                27          69
                28          82
                29          89
                30          86
                31          99
                32          97
                33          93
                34         100
                35         101
                36         102

----------------------------------------------------------------------------------------

 
 -----------------------------------------------------------------------------
|                                                                             |
|           W    W    AA    RRRRR   N    N  II  N    N   GGGG   !!!           |
|           W    W   A  A   R    R  NN   N  II  NN   N  G    G  !!!           |
|           W    W  A    A  R    R  N N  N  II  N N  N  G       !!!           |
|           W WW W  AAAAAA  RRRRR   N  N N  II  N  N N  G  GGG   !            |
|           WW  WW  A    A  R   R   N   NN  II  N   NN  G    G                |
|           W    W  A    A  R    R  N    N  II  N    N   GGGG   !!!           |
|                                                                             |
|     The requested file  could not be found or opened for reading            |
|     k-point information. Automatic k-point generation is used as a          |
|     fallback, which may lead to unwanted results.                           |
|                                                                             |
 -----------------------------------------------------------------------------

 

Automatic generation of k-mesh.
 Grid dimensions derived from KSPACING:
 generate k-points for:    1    1    1

 Generating k-lattice:

  Cartesian coordinates                     Fractional coordinates (reciprocal lattice)
     0.131769228  0.000000000  0.000000000     1.000000000  0.000000000  0.000000000
     0.065884614  0.114115499  0.000000000     0.000000000  1.000000000  0.000000000
     0.000000000  0.000000000  0.069261178     0.000000000  0.000000000  1.000000000

  Length of vectors
     0.131769228  0.131769228  0.069261178

  Shift w.r.t. Gamma in fractional coordinates (k-lattice)
     0.000000000  0.000000000  0.000000000

 
 Subroutine IBZKPT returns following result:
 ===========================================
 
 Found      1 irreducible k-points:
 
 Following reciprocal coordinates:
            Coordinates               Weight
  0.000000  0.000000  0.000000      1.000000
 
 Following cartesian coordinates:
            Coordinates               Weight
  0.000000  0.000000  0.000000      1.000000
 


--------------------------------------------------------------------------------------------------------




 Dimension of arrays:
   k-points           NKPTS =      1   k-points in BZ     NKDIM =      1   number of bands    NBANDS=    408
   number of dos      NEDOS =    301   number of ions     NIONS =    108
   non local maximal  LDIM  =      6   non local SUM 2l+1 LMDIM =     18
   total plane-waves  NPLWV = 442368
   max r-space proj   IRMAX =      1   max aug-charges    IRDMAX=   7769
   dimension x,y,z NGX =    64 NGY =   64 NGZ =  108
   dimension x,y,z NGXF=    96 NGYF=   96 NGZF=  160
   support grid    NGXF=    96 NGYF=   96 NGZF=  160
   ions per type =              27  54   9   9   9
   NGX,Y,Z   is equivalent  to a cutoff of  12.14, 12.14, 12.44 a.u.
   NGXF,Y,Z  is equivalent  to a cutoff of  18.21, 18.21, 18.42 a.u.

 SYSTEM =  unknown system                          
 POSCAR =  Li  O Mn Co Ni                          

 Startparameter for this run:
   NWRITE =      2    write-flag & timer
   PREC   = high      normal or accurate (medium, high low for compatibility)
   ISTART =      0    job   : 0-new  1-cont  2-samecut
   ICHARG =      1    charge: 1-file 2-atom 10-const
   ISPIN  =      2    spin polarized calculation?
   LNONCOLLINEAR =      F non collinear calculations
   LSORBIT =      F    spin-orbit coupling
   INIWAV =      1    electr: 0-lowe 1-rand  2-diag
   LASPH  =      F    aspherical Exc in radial PAW
 Electronic Relaxation 1
   ENCUT  =  500.0 eV  36.75 Ry    6.06 a.u.  15.98 15.98 26.32*2*pi/ulx,y,z
   ENINI  =  500.0     initial cutoff
   ENAUG  =  605.4 eV  augmentation charge cutoff
   NELM   =    800;   NELMIN=  4; NELMDL= -5     # of ELM steps 
   EDIFF  = 0.1E-04   stopping-criterion for ELM
   LREAL  =      F    real-space projection
   NLSPLINE    = F    spline interpolate recip. space projectors
   LCOMPAT=      F    compatible to vasp.4.4
   GGA_COMPAT  = T    GGA compatible to vasp.4.4-vasp.4.6
   LMAXPAW     = -100 max onsite density
   LMAXMIX     =    4 max onsite mixed and CHGCAR
   VOSKOWN=      0    Vosko Wilk Nusair interpolation
   ROPT   =    0.00000   0.00000   0.00000   0.00000
   ROPT   =    0.00000
 Ionic relaxation
   EDIFFG = 0.1E-03   stopping-criterion for IOM
   NSW    =      0    number of steps for IOM
   NBLOCK =      1;   KBLOCK =      1    inner block; outer block 
   IBRION =     -1    ionic relax: 0-MD 1-quasi-New 2-CG
   NFREE  =      0    steps in history (QN), initial steepest desc. (CG)
   ISIF   =      2    stress and relaxation
   IWAVPR =     10    prediction:  0-non 1-charg 2-wave 3-comb
   ISYM   =      2    0-nonsym 1-usesym 2-fastsym
   LCORR  =      T    Harris-Foulkes like correction to forces

   POTIM  = 0.5000    time-step for ionic-motion
   TEIN   =    0.0    initial temperature
   TEBEG  =    0.0;   TEEND  =   0.0 temperature during run
   SMASS  =  -3.00    Nose mass-parameter (am)
   estimated Nose-frequenzy (Omega)   =  0.10E-29 period in steps = 0.13E+47 mass=  -0.175E-26a.u.
   SCALEE = 1.0000    scale energy and forces
   NPACO  =    256;   APACO  = 10.0  distance and # of slots for P.C.
   PSTRESS=    0.0 pullay stress

  Mass of Ions in am
   POMASS =   7.01 16.00 54.94 58.93 58.69
  Ionic Valenz
   ZVAL   =   1.00  6.00  7.00  9.00 10.00
  Atomic Wigner-Seitz radii
   RWIGS  =  -1.00 -1.00 -1.00 -1.00 -1.00
  virtual crystal weights 
   VCA    =   1.00  1.00  1.00  1.00  1.00
   NELECT =     585.0000    total number of electrons
   NUPDOWN=      81.0000    fix difference up-down

 DOS related values:
   EMIN   =  10.00;   EMAX   =-10.00  energy-range for DOS
   EFERMI =   0.00
   ISMEAR =     0;   SIGMA  =   0.05  broadening in eV -4-tet -1-fermi 0-gaus

 Electronic relaxation 2 (details)
   IALGO  =     68    algorithm
   LDIAG  =      T    sub-space diagonalisation (order eigenvalues)
   LSUBROT=      F    optimize rotation matrix (better conditioning)
   TURBO    =      0    0=normal 1=particle mesh
   IRESTART =      0    0=no restart 2=restart with 2 vectors
   NREBOOT  =      0    no. of reboots
   NMIN     =      0    reboot dimension
   EREF     =   0.00    reference energy to select bands
   IMIX   =      4    mixing-type and parameters
     AMIX     =   0.40;   BMIX     =  1.00
     AMIX_MAG =   1.60;   BMIX_MAG =  1.00
     AMIN     =   0.10
     WC   =   100.;   INIMIX=   1;  MIXPRE=   1;  MAXMIX= -45

 Intra band minimization:
   WEIMIN = 0.0000     energy-eigenvalue tresh-hold
   EBREAK =  0.61E-08  absolut break condition
   DEPER  =   0.30     relativ break condition  

   TIME   =   0.40     timestep for ELM

  volume/ion in A,a.u.               =       8.89        60.00
  Fermi-wavevector in a.u.,A,eV,Ry     =   1.387851  2.622659 26.206609  1.926131
  Thomas-Fermi vector in A             =   2.512033
 
 Write flags
   LWAVE        =      F    write WAVECAR
   LDOWNSAMPLE  =      F    k-point downsampling of WAVECAR
   LCHARG       =      F    write CHGCAR
   LVTOT        =      F    write LOCPOT, total local potential
   LVHAR        =      F    write LOCPOT, Hartree potential only
   LELF         =      F    write electronic localiz. function (ELF)
   LORBIT       =     11    0 simple, 1 ext, 2 COOP (PROOUT), +10 PAW based schemes


 Dipole corrections
   LMONO  =      F    monopole corrections only (constant potential shift)
   LDIPOL =      F    correct potential (dipole corrections)
   IDIPOL =      0    1-x, 2-y, 3-z, 4-all directions 
   EPSILON=  1.0000000 bulk dielectric constant

 LDA+U is selected, type is set to LDAUTYPE =  2
   angular momentum for each species LDAUL =    -1   -1    2    2    2
   U (eV)           for each species LDAUU =   0.0  0.0  4.8  5.1  6.4
   J (eV)           for each species LDAUJ =   0.0  0.0  0.0  0.0  0.0
 Exchange correlation treatment:
   GGA     =    PE    GGA type
   LEXCH   =     8    internal setting for exchange type
   LIBXC   =     F    Libxc                    
   VOSKOWN =     0    Vosko Wilk Nusair interpolation
   LHFCALC =     F    Hartree Fock is set to
   LHFONE  =     F    Hartree Fock one center treatment
   AEXX    =    0.0000 exact exchange contribution

 Linear response parameters
   LEPSILON=     F    determine dielectric tensor
   LRPA    =     F    only Hartree local field effects (RPA)
   LNABLA  =     F    use nabla operator in PAW spheres
   LVEL    =     F    velocity operator in full k-point grid
   CSHIFT  =0.1000    complex shift for real part using Kramers Kronig
   OMEGAMAX=  -1.0    maximum frequency
   DEG_THRESHOLD= 0.2000000E-02 threshold for treating states as degnerate
   RTIME   =   -0.100 relaxation time in fs
  (WPLASMAI=    0.000 imaginary part of plasma frequency in eV, 0.658/RTIME)
   DFIELD  = 0.0000000 0.0000000 0.0000000 field for delta impulse in time
 
  Optional k-point grid parameters
   LKPOINTS_OPT  =     F    use optional k-point grid
   KPOINTS_OPT_MODE=     1    mode for optional k-point grid
 
 Orbital magnetization related:
   ORBITALMAG=     F  switch on orbital magnetization
   LCHIMAG   =     F  perturbation theory with respect to B field
   DQ        =  0.001000  dq finite difference perturbation B field
   LLRAUG    =     F  two centre corrections for induced B field



--------------------------------------------------------------------------------------------------------


 Static calculation
 charge density and potential will be updated during run
 spin polarized calculation
 RMM-DIIS sequential band-by-band and
  variant of blocked Davidson during initial phase
 perform sub-space diagonalisation
    before iterative eigenvector-optimisation
 modified Broyden-mixing scheme, WC =      100.0
 initial mixing is a Kerker type mixing with AMIX =  0.4000 and BMIX =      1.0000
 Hartree-type preconditioning will be used
 using additional bands          115
 reciprocal scheme for non local part
 use partial core corrections
 calculate Harris-corrections to forces 
   (improved forces if not selfconsistent)
 use gradient corrections 
 use of overlap-Matrix (Vanderbilt PP)
 Gauss-broadening in eV      SIGMA  =   0.05


--------------------------------------------------------------------------------------------------------


  energy-cutoff  :      500.00
  volume of cell :      960.18
      direct lattice vectors                 reciprocal lattice vectors
     7.589025264 -4.381525779  0.000000000     0.131769228  0.000000000  0.000000000
     0.000000000  8.763051558  0.000000000     0.065884614  0.114115499  0.000000000
     0.000000000  0.000000000 14.438102719     0.000000000  0.000000000  0.069261178

  length of vectors
     8.763051558  8.763051558 14.438102719     0.131769228  0.131769228  0.069261178


 
 k-points in units of 2pi/SCALE and weight: read from INCAR                         
   0.00000000  0.00000000  0.00000000       1.000
 
 k-points in reciprocal lattice and weights: read from INCAR                         
   0.00000000  0.00000000  0.00000000       1.000
 
 position of ions in fractional coordinates (direct lattice) 
   0.00000000  0.00363240  0.00000000
   0.22409782  0.11111111  0.33333333
   0.10747871  0.21858983  0.66666667
   0.33333333  0.00187560  0.00000000
   0.55015963  0.11111111  0.33333333
   0.44256884  0.22034662  0.66666667
   0.66666667  0.99460407  0.00000000
   0.89252129  0.11111111  0.33333333
   0.78317370  0.22761815  0.66666667
   0.00000000  0.33520893  0.00000000
   0.21682630  0.44444444  0.33333333
   0.10923551  0.55367996  0.66666667
   0.33333333  0.32793741  0.00000000
   0.55918795  0.44444444  0.33333333
   0.44984037  0.56095148  0.66666667
   0.66666667  0.33696573  0.00000000
   0.89076449  0.44444444  0.33333333
   0.77414538  0.55192316  0.66666667
   0.00000000  0.66127074  0.00000000
   0.22585462  0.77777778  0.33333333
   0.11650704  0.89428482  0.66666667
   0.33333333  0.67029906  0.00000000
   0.55743116  0.77777778  0.33333333
   0.44081205  0.88525649  0.66666667
   0.66666667  0.66854227  0.00000000
   0.88349296  0.77777778  0.33333333
   0.77590218  0.88701329  0.66666667
   0.23174923  0.11029136  0.09164091
   0.98850503  0.99032300  0.24367054
   0.10929314  0.23189922  0.42299613
   0.23256897  0.11193086  0.57502575
   0.01149497  0.00181797  0.75632946
   0.12078811  0.22040425  0.91033721
   0.55804478  0.12379919  0.09071098
   0.33251359  0.00952700  0.24169242
   0.43409769  0.21269522  0.42497425
   0.54535670  0.09842303  0.57595568
   0.33415308  0.01034675  0.75830758
   0.43491744  0.21187547  0.90835909
   0.87921189  0.09961614  0.08966279
   0.67935474  0.00248922  0.24262235
   0.78797663  0.21973300  0.42404432
   0.89070686  0.12260608  0.57700387
   0.65397859  0.98980115  0.75737765
   0.77528855  0.23242108  0.90928902
   0.22471145  0.45713252  0.09071098
   0.99918025  0.34286034  0.24169242
   0.10076436  0.54602855  0.42497425
   0.21202337  0.43175637  0.57595568
   0.00081975  0.34368008  0.75830758
   0.10158411  0.54520881  0.90835909
   0.54587856  0.43294947  0.08966279
   0.34602141  0.33582256  0.24262235
   0.45464330  0.55306633  0.42404432
   0.55737353  0.45593942  0.57700387
   0.32064526  0.32313448  0.75737765
   0.44195522  0.56575441  0.90928902
   0.89841589  0.44362470  0.09164091
   0.65517169  0.32365633  0.24367054
   0.77595980  0.56523256  0.42299613
   0.89923564  0.44526419  0.57502575
   0.67816164  0.33515131  0.75632946
   0.78745478  0.55373758  0.91033721
   0.21254522  0.76628280  0.08966279
   0.01268808  0.66915589  0.24262235
   0.12130996  0.88639967  0.42404432
   0.22404020  0.78927275  0.57700387
   0.98731192  0.65646781  0.75737765
   0.10862189  0.89908774  0.90928902
   0.56508256  0.77695803  0.09164091
   0.32183836  0.65698967  0.24367054
   0.44262647  0.89856589  0.42299613
   0.56590231  0.77859752  0.57502575
   0.34482831  0.66848464  0.75632946
   0.45412144  0.88707092  0.91033721
   0.89137811  0.79046585  0.09071098
   0.66584692  0.67619367  0.24169242
   0.76743103  0.87936189  0.42497425
   0.87869004  0.76508970  0.57595568
   0.66748641  0.67701342  0.75830758
   0.76825077  0.87854214  0.90835909
   0.22210093  0.11111111  0.83333333
   0.44456574  0.22234352  0.16666667
   0.33333333  0.99987870  0.50000000
   0.11123241  0.55567685  0.16666667
   0.00000000  0.33321204  0.50000000
   0.88876759  0.44444444  0.83333333
   0.55543426  0.77777778  0.83333333
   0.77789907  0.88901019  0.16666667
   0.66666667  0.66654537  0.50000000
   0.55758238  0.11111111  0.83333333
   0.77575095  0.22019540  0.16666667
   0.66666667  0.00202682  0.50000000
   0.22424905  0.44444444  0.83333333
   0.44241762  0.55352873  0.16666667
   0.33333333  0.33536016  0.50000000
   0.10908429  0.88686207  0.16666667
   0.00000000  0.66869349  0.50000000
   0.89091571  0.77777778  0.83333333
   0.11117026  0.22228137  0.16666667
   0.00000000  0.99994085  0.50000000
   0.88882974  0.11111111  0.83333333
   0.55549641  0.44444444  0.83333333
   0.77783693  0.55561471  0.16666667
   0.66666667  0.33327418  0.50000000
   0.22216307  0.77777778  0.83333333
   0.44450359  0.88894804  0.16666667
   0.33333333  0.66660752  0.50000000
 
 position of ions in cartesian coordinates  (Angst):
   0.00000000  0.03183088  0.00000000
   1.70068405 -0.00821801  4.81270086
   0.81565867  1.44459317  9.62540186
   2.52967509 -1.44407260  0.00000000
   4.17517534 -1.43686622  4.81270086
   3.35866612 -0.00821798  9.62540186
   5.05935018  5.79474959  0.00000000
   6.77336659 -2.93693264  4.81270086
   5.94352502 -1.43686619  9.62540186
   0.00000000  2.93745318  0.00000000
   1.64550025  2.94465956  4.81270086
   0.82899103  4.37330780  9.62540186
   2.52967509  1.41322381  0.00000000
   4.24369150  1.44459314  4.81270086
   3.41384993  2.94465959  9.62540186
   5.05935018  0.03183088  0.00000000
   6.76003423 -0.00821801  4.81270086
   5.87500885  1.44459317  9.62540186
   0.00000000  5.79474959  0.00000000
   1.71401642  5.82611892  4.81270086
   0.88417484  7.32618537  9.62540186
   2.52967509  4.41335666  0.00000000
   4.23035914  4.37330777  4.81270086
   3.34533376  5.82611895  9.62540186
   5.05935018  2.93745318  0.00000000
   6.70485042  2.94465956  4.81270086
   5.88834121  4.37330780  9.62540186
   1.75875075 -0.04892630  1.32312094
   7.50178962  4.34709125  3.51814022
   0.82942837  1.55327416  6.10726164
   1.76497181 -0.03815110  8.30228078
   0.08723565 -0.03443453 10.91996250
   0.91666402  1.40217758 13.14354208
   4.23501594 -1.36022893  1.30969450
   2.52345402 -1.37343122  3.48957992
   3.29437836 -0.03815107  6.13582194
   4.13872580 -1.52700835  8.31570722
   2.53589615 -1.37343122 10.94852280
   3.30059943 -0.04892627 13.11498178
   6.67236124 -2.97934822  1.29456064
   5.15564032 -2.95479713  3.50300636
   5.97997456 -1.52700832  6.12239550
   6.75959689 -2.82825165  8.33084108
   4.96306003  5.80825443 10.93509636
   5.88368441 -1.36022890 13.12840822
   1.70534085  3.02129685  1.30969450
   7.58280420 -1.37343122  3.48957992
   0.76470327  4.34337471  6.13582194
   1.60905071  2.85451743  8.31570722
   0.00622107  3.00809456 10.94852280
   0.77092434  4.33259951 13.11498178
   4.14268615  1.40217756  1.29456064
   2.62596523  1.42672865  3.50300636
   3.45029947  2.85451746  6.12239550
   4.22992180  1.55327413  8.33084108
   2.43338494  1.42672865 10.93509636
   3.35400932  3.02129688 13.12840822
   6.81810092 -0.04892630  1.32312094
   4.97211453 -0.03443453  3.51814022
   5.88877855  1.55327416  6.10726164
   6.82432199 -0.03815110  8.30228078
   5.14658583 -0.03443453 10.91996250
   5.97601420  1.40217758 13.14354208
   1.61301106  5.78370333  1.29456064
   0.09629014  5.80825443  3.50300636
   0.92062438  7.23604324  6.12239550
   1.70024671  5.93479991  8.33084108
   7.49273512  1.42672865 10.93509636
   0.82433423  7.40282266 13.12840822
   4.28842584  4.33259948  1.32312094
   2.44243944  4.34709125  3.51814022
   3.35910346  5.93479994  6.10726164
   4.29464690  4.34337468  8.30228078
   2.61691074  4.34709125 10.91996250
   3.44633911  5.78370336 13.14354208
   6.76469103  3.02129685  1.30969450
   5.05312911  3.00809456  3.48957992
   5.82405345  4.34337471  6.13582194
   6.66840088  2.85451743  8.31570722
   5.06557124  3.00809456 10.94852280
   5.83027452  4.33259951 13.11498178
   1.68552954  0.00053145 12.03175222
   3.37382064  0.00053148  2.40635050
   2.52967509  7.30148003  7.21905136
   0.84414555  4.38205726  2.40635050
   0.00000000  2.91995425  7.21905136
   6.74487971  0.00053145 12.03175222
   4.21520462  4.38205723 12.03175222
   5.90349573  4.38205726  2.40635050
   5.05935018  2.91995425  7.21905136
   4.23150676 -1.46938918 12.03175222
   5.88719359 -1.46938915  2.40635050
   5.05935018 -2.90325604  7.21905136
   1.70183168  2.91213660 12.03175222
   3.35751850  2.91213663  2.40635050
   2.52967509  1.47826974  7.21905136
   0.82784341  7.29366240  2.40635050
   0.00000000  5.85979552  7.21905136
   6.76118185  2.91213660 12.03175222
   0.84367390  1.46076777  2.40635050
   0.00000000  8.76253324  7.21905136
   6.74535136 -2.92075804 12.03175222
   4.21567627  1.46076774 12.03175222
   5.90302408  1.46076777  2.40635050
   5.05935018 -0.00051832  7.21905136
   1.68600119  5.84229352 12.03175222
   3.37334899  5.84229355  2.40635050
   2.52967509  4.38100746  7.21905136
 


--------------------------------------------------------------------------------------------------------


 k-point   1 :   0.0000 0.0000 0.0000  plane waves:   24377

 maximum and minimum number of plane-waves per node :      1527     1521

 maximum number of plane-waves:     24377
 maximum index in each direction: 
   IXMAX=   15   IYMAX=   15   IZMAX=   26
   IXMIN=  -15   IYMIN=  -15   IZMIN=  -26


 parallel 3D FFT for wavefunctions:
    minimum data exchange during FFTs selected (reduces bandwidth)
 parallel 3D FFT for charge:
    minimum data exchange during FFTs selected (reduces bandwidth)


 total amount of memory used by VASP MPI-rank0    41802. kBytes
=======================================================================

   base      :      30000. kBytes
   nonl-proj :       3740. kBytes
   fftplans  :       1387. kBytes
   grid      :       3834. kBytes
   one-center:        217. kBytes
   wavefun   :       2624. kBytes
 
     INWAV:  cpu time      0.0000: real time      0.0000
 Broyden mixing: mesh for mixing (old mesh)
   NGX = 31   NGY = 31   NGZ = 53
  (NGX  = 96   NGY  = 96   NGZ  =160)
  gives a total of  50933 points

 initial charge density was supplied:
 charge density of overlapping atoms calculated
 number of electron     585.0000000 magnetization      99.0000000
 keeping initial charge density in first step


--------------------------------------------------------------------------------------------------------


 Maximum index for augmentation-charges          417 (set IRDMAX)


--------------------------------------------------------------------------------------------------------


 First call to EWALD:  gamma=   0.180
 Maximum number of real-space cells 3x 3x 2
 Maximum number of reciprocal cells 2x 2x 4

    FEWALD:  cpu time      0.0049: real time      0.0049


--------------------------------------- Iteration      1(   1)  ---------------------------------------


    POTLOK:  cpu time      0.0370: real time      0.0994
    SETDIJ:  cpu time      0.0091: real time      0.0102
     EDDAV:  cpu time      2.1685: real time      2.2435
       DOS:  cpu time      0.0042: real time      0.0049
    --------------------------------------------
      LOOP:  cpu time      2.2188: real time      2.3580

 eigenvalue-minimisations  :  1632
 total energy-change (2. order) : 0.7584802E+04  (-0.2438034E+05)
 number of electron     585.0000000 magnetization      99.0000000
 augmentation part      585.0000000 magnetization      99.0000000

 Free energy of the ion-electron system (eV)
  ---------------------------------------------------
  alpha Z        PSCENC =      1775.20933029
  Ewald energy   TEWEN  =    -32749.78741241
  -Hartree energ DENC   =    -14123.73820227
  -exchange      EXHF   =         0.00000000
  -V(xc)+E(xc)   XCENC  =      1757.10660987
  PAW double counting   =     37693.97286857   -38127.76732012
  entropy T*S    EENTRO =        -0.00447783
  eigenvalues    EBANDS =      7099.37964192
  atomic energy  EATOM  =     44260.43128637
  Solvation  Ediel_sol  =         0.00000000
  ---------------------------------------------------
  free energy    TOTEN  =      7584.80232440 eV

  energy without entropy =     7584.80680223  energy(sigma->0) =     7584.80456331


--------------------------------------------------------------------------------------------------------




--------------------------------------- Iteration      1(   2)  ---------------------------------------


     EDDAV:  cpu time      2.1071: real time      2.1271
       DOS:  cpu time      0.0013: real time      0.0013
    --------------------------------------------
      LOOP:  cpu time      2.1084: real time      2.1284

 eigenvalue-minimisations  :  1648
 total energy-change (2. order) :-0.6568702E+04  (-0.6020537E+04)
 number of electron     585.0000000 magnetization      99.0000000
 augmentation part      585.0000000 magnetization      99.0000000

 Free energy of the ion-electron system (eV)
  ---------------------------------------------------
  alpha Z        PSCENC =      1775.20933029
  Ewald energy   TEWEN  =    -32749.78741241
  -Hartree energ DENC   =    -14123.73820227
  -exchange      EXHF   =         0.00000000
  -V(xc)+E(xc)   XCENC  =      1757.10660987
  PAW double counting   =     37693.97286857   -38127.76732012
  entropy T*S    EENTRO =        -0.04179328
  eigenvalues    EBANDS =       530.71463115
  atomic energy  EATOM  =     44260.43128637
  Solvation  Ediel_sol  =         0.00000000
  ---------------------------------------------------
  free energy    TOTEN  =      1016.09999818 eV

  energy without entropy =     1016.14179145  energy(sigma->0) =     1016.12089482


--------------------------------------------------------------------------------------------------------




--------------------------------------- Iteration      1(   3)  ---------------------------------------


     EDDAV:  cpu time      2.2152: real time      2.2466
       DOS:  cpu time      0.0015: real time      0.0016
    --------------------------------------------
      LOOP:  cpu time      2.2168: real time      2.2482

 eigenvalue-minimisations  :  1784
 total energy-change (2. order) :-0.1607609E+04  (-0.1486331E+04)
 number of electron     585.0000000 magnetization      99.0000000
 augmentation part      585.0000000 magnetization      99.0000000

 Free energy of the ion-electron system (eV)
  ---------------------------------------------------
  alpha Z        PSCENC =      1775.20933029
  Ewald energy   TEWEN  =    -32749.78741241
  -Hartree energ DENC   =    -14123.73820227
  -exchange      EXHF   =         0.00000000
  -V(xc)+E(xc)   XCENC  =      1757.10660987
  PAW double counting   =     37693.97286857   -38127.76732012
  entropy T*S    EENTRO =        -0.06469734
  eigenvalues    EBANDS =     -1076.87115511
  atomic energy  EATOM  =     44260.43128637
  Solvation  Ediel_sol  =         0.00000000
  ---------------------------------------------------
  free energy    TOTEN  =      -591.50869215 eV

  energy without entropy =     -591.44399481  energy(sigma->0) =     -591.47634348


--------------------------------------------------------------------------------------------------------




--------------------------------------- Iteration      1(   4)  ---------------------------------------


     EDDAV:  cpu time      2.6941: real time      2.7179
       DOS:  cpu time      0.0010: real time      0.0010
    --------------------------------------------
      LOOP:  cpu time      2.6950: real time      2.7189

 eigenvalue-minimisations  :  2240
 total energy-change (2. order) :-0.1768678E+03  (-0.1723594E+03)
 number of electron     585.0000000 magnetization      99.0000000
 augmentation part      585.0000000 magnetization      99.0000000

 Free energy of the ion-electron system (eV)
  ---------------------------------------------------
  alpha Z        PSCENC =      1775.20933029
  Ewald energy   TEWEN  =    -32749.78741241
  -Hartree energ DENC   =    -14123.73820227
  -exchange      EXHF   =         0.00000000
  -V(xc)+E(xc)   XCENC  =      1757.10660987
  PAW double counting   =     37693.97286857   -38127.76732012
  entropy T*S    EENTRO =        -0.18335349
  eigenvalues    EBANDS =     -1253.62034374
  atomic energy  EATOM  =     44260.43128637
  Solvation  Ediel_sol  =         0.00000000
  ---------------------------------------------------
  free energy    TOTEN  =      -768.37653693 eV

  energy without entropy =     -768.19318344  energy(sigma->0) =     -768.28486018


--------------------------------------------------------------------------------------------------------




--------------------------------------- Iteration      1(   5)  ---------------------------------------


     EDDAV:  cpu time      2.7088: real time      2.7323
       DOS:  cpu time      0.0010: real time      0.0010
    CHARGE:  cpu time      0.1666: real time      0.1681
    MIXING:  cpu time      0.0006: real time      0.0006
    --------------------------------------------
      LOOP:  cpu time      2.8769: real time      2.9020

 eigenvalue-minimisations  :  2304
 total energy-change (2. order) :-0.7228909E+01  (-0.7169340E+01)
 number of electron     585.0000089 magnetization      94.4142499
 augmentation part      151.9330499 magnetization      70.2666919

 Broyden mixing:
  rms(total) = 0.13007E+02    rms(broyden)= 0.13005E+02
  rms(prec ) = 0.14405E+02
  weight for this iteration     100.00

 Free energy of the ion-electron system (eV)
  ---------------------------------------------------
  alpha Z        PSCENC =      1775.20933029
  Ewald energy   TEWEN  =    -32749.78741241
  -Hartree energ DENC   =    -14123.73820227
  -exchange      EXHF   =         0.00000000
  -V(xc)+E(xc)   XCENC  =      1757.10660987
  PAW double counting   =     37693.97286857   -38127.76732012
  entropy T*S    EENTRO =        -0.19507577
  eigenvalues    EBANDS =     -1260.83753018
  atomic energy  EATOM  =     44260.43128637
  Solvation  Ediel_sol  =         0.00000000
  ---------------------------------------------------
  free energy    TOTEN  =      -775.60544565 eV

  energy without entropy =     -775.41036988  energy(sigma->0) =     -775.50790776


--------------------------------------------------------------------------------------------------------




--------------------------------------- Iteration      1(   6)  ---------------------------------------


    POTLOK:  cpu time      0.0274: real time      0.0277
    SETDIJ:  cpu time      0.0085: real time      0.0086
    EDDIAG:  cpu time      0.2476: real time      0.2498
  RMM-DIIS:  cpu time      1.4835: real time      1.4960
    ORTHCH:  cpu time      0.0819: real time      0.0824
       DOS:  cpu time      0.0011: real time      0.0011
    CHARGE:  cpu time      0.1421: real time      0.1431
    MIXING:  cpu time      0.0009: real time      0.0481
    --------------------------------------------
      LOOP:  cpu time      1.9930: real time      2.0568

 eigenvalue-minimisations  :  2272
 total energy-change (2. order) : 0.5389208E+02  (-0.1571228E+03)
 number of electron     585.0000088 magnetization      93.8205745
 augmentation part      180.7549996 magnetization      63.3232173

 Broyden mixing:
  rms(total) = 0.29457E+02    rms(broyden)= 0.29456E+02
  rms(prec ) = 0.30454E+02
  weight for this iteration     100.00

 eigenvalues of (default mixing * dielectric matrix)
  average eigenvalue GAMMA=   0.1156
  0.1156

 Free energy of the ion-electron system (eV)
  ---------------------------------------------------
  alpha Z        PSCENC =      1775.20933029
  Ewald energy   TEWEN  =    -32749.78741241
  -Hartree energ DENC   =    -14162.58391889
  -exchange      EXHF   =         0.00000000
  -V(xc)+E(xc)   XCENC  =      1818.62861805
  PAW double counting   =     42240.80361886   -42505.51630638
  entropy T*S    EENTRO =        -0.07791535
  eigenvalues    EBANDS =     -1398.82066284
  atomic energy  EATOM  =     44260.43128637
  Solvation  Ediel_sol  =         0.00000000
  ---------------------------------------------------
  free energy    TOTEN  =      -721.71336230 eV

  energy without entropy =     -721.63544696  energy(sigma->0) =     -721.67440463


[...]
      4.24369      1.44459      4.81270        -0.028400      0.016397     -0.000000
      3.41385      2.94466      9.62540        -0.012386     -0.007151     -0.000000
      5.05935      0.03183      0.00000         0.000000     -0.032794     -0.000000
      6.76003     -0.00822      4.81270         0.000132     -0.000076     -0.000000
      5.87501      1.44459      9.62540         0.028400      0.016397     -0.000000
      0.00000      5.79475      0.00000         0.000000      0.014302     -0.000000
      1.71402      5.82612      4.81270        -0.028400      0.016397     -0.000000
      0.88417      7.32619      9.62540        -0.012386     -0.007151     -0.000000
      2.52968      4.41336      0.00000         0.000000     -0.032794     -0.000000
      4.23036      4.37331      4.81270         0.000132     -0.000076     -0.000000
      3.34533      5.82612      9.62540         0.028400      0.016397     -0.000000
      5.05935      2.93745      0.00000         0.000000      0.000153     -0.000000
      6.70485      2.94466      4.81270         0.012386     -0.007151     -0.000000
      5.88834      4.37331      9.62540        -0.000132     -0.000076     -0.000000
      1.75875     -0.04893      1.32312        -0.031311     -0.013878      0.192318
      7.50179      4.34709      3.51814         0.065207      0.029356     -0.050591
      0.82943      1.55327      6.10726         0.007180     -0.071149      0.050591
      1.76497     -0.03815      8.30228        -0.003637      0.034056     -0.192318
      0.08724     -0.03443     10.91996        -0.065207      0.029356      0.050591
      0.91666      1.40218     13.14354        -0.058027      0.041793     -0.050591
      4.23502     -1.36023      1.30969        -0.137644     -0.253625      0.156678
      2.52345     -1.37343      3.48958        -0.027675     -0.020177     -0.192318
      3.29438     -0.03815      6.13582         0.003637      0.034056      0.192318
      4.13873     -1.52701      8.31571         0.150824      0.246016     -0.156678
      2.53590     -1.37343     10.94852         0.027675     -0.020177      0.192318
      3.30060     -0.04893     13.11498         0.031311     -0.013878     -0.192318
      6.67236     -2.97935      1.29456         0.058027      0.041793      0.050591
      5.15564     -2.95480      3.50301        -0.288468      0.007609     -0.156678
      5.97997     -1.52701      6.12240        -0.150824      0.246016      0.156678
      6.75960     -2.82825      8.33084        -0.007180     -0.071149     -0.050591
      4.96306      5.80825     10.93510         0.288468      0.007609      0.156678
      5.88368     -1.36023     13.12841         0.137644     -0.253625     -0.156678
      1.70534      3.02130      1.30969        -0.137644     -0.253625      0.156678
      7.58280     -1.37343      3.48958        -0.027675     -0.020177     -0.192318
      0.76470      4.34337      6.13582         0.003637      0.034056      0.192318
      1.60905      2.85452      8.31571         0.150824      0.246016     -0.156678
      0.00622      3.00809     10.94852         0.027675     -0.020177      0.192318
      0.77092      4.33260     13.11498         0.031311     -0.013878     -0.192318
      4.14269      1.40218      1.29456         0.058027      0.041793      0.050591
      2.62597      1.42673      3.50301        -0.288468      0.007609     -0.156678
      3.45030      2.85452      6.12240        -0.150824      0.246016      0.156678
      4.22992      1.55327      8.33084        -0.007180     -0.071149     -0.050591
      2.43338      1.42673     10.93510         0.288468      0.007609      0.156678
      3.35401      3.02130     13.12841         0.137644     -0.253625     -0.156678
      6.81810     -0.04893      1.32312        -0.031311     -0.013878      0.192318
      4.97211     -0.03443      3.51814         0.065207      0.029356     -0.050591
      5.88878      1.55327      6.10726         0.007180     -0.071149      0.050591
      6.82432     -0.03815      8.30228        -0.003637      0.034056     -0.192318
      5.14659     -0.03443     10.91996        -0.065207      0.029356      0.050591
      5.97601      1.40218     13.14354        -0.058027      0.041793     -0.050591
      1.61301      5.78370      1.29456         0.058027      0.041793      0.050591
      0.09629      5.80825      3.50301        -0.288468      0.007609     -0.156678
      0.92062      7.23604      6.12240        -0.150824      0.246016      0.156678
      1.70025      5.93480      8.33084        -0.007180     -0.071149     -0.050591
      7.49274      1.42673     10.93510         0.288468      0.007609      0.156678
      0.82433      7.40282     13.12841         0.137644     -0.253625     -0.156678
      4.28843      4.33260      1.32312        -0.031311     -0.013878      0.192318
      2.44244      4.34709      3.51814         0.065207      0.029356     -0.050591
      3.35910      5.93480      6.10726         0.007180     -0.071149      0.050591
      4.29465      4.34337      8.30228        -0.003637      0.034056     -0.192318
      2.61691      4.34709     10.91996        -0.065207      0.029356      0.050591
      3.44634      5.78370     13.14354        -0.058027      0.041793     -0.050591
      6.76469      3.02130      1.30969        -0.137644     -0.253625      0.156678
      5.05313      3.00809      3.48958        -0.027675     -0.020177     -0.192318
      5.82405      4.34337      6.13582         0.003637      0.034056      0.192318
      6.66840      2.85452      8.31571         0.150824      0.246016     -0.156678
      5.06557      3.00809     10.94852         0.027675     -0.020177      0.192318
      5.83027      4.33260     13.11498         0.031311     -0.013878     -0.192318
      1.68553      0.00053     12.03175        -0.172632      0.099669     -0.000000
      3.37382      0.00053      2.40635         0.172632      0.099669     -0.000000
      2.52968      7.30148      7.21905         0.000000     -0.199338     -0.000000
      0.84415      4.38206      2.40635         0.172632      0.099669     -0.000000
      0.00000      2.91995      7.21905         0.000000     -0.199338     -0.000000
      6.74488      0.00053     12.03175        -0.172632      0.099669     -0.000000
      4.21520      4.38206     12.03175        -0.172632      0.099669     -0.000000
      5.90350      4.38206      2.40635         0.172632      0.099669     -0.000000
      5.05935      2.91995      7.21905         0.000000     -0.199338     -0.000000
      4.23151     -1.46939     12.03175        -0.261936      0.151229     -0.000000
      5.88719     -1.46939      2.40635         0.261936      0.151229     -0.000000
      5.05935     -2.90326      7.21905         0.000000     -0.302458     -0.000000
      1.70183      2.91214     12.03175        -0.261936      0.151229     -0.000000
      3.35752      2.91214      2.40635         0.261936      0.151229     -0.000000
      2.52968      1.47827      7.21905         0.000000     -0.302458     -0.000000
      0.82784      7.29366      2.40635         0.261936      0.151229     -0.000000
      0.00000      5.85980      7.21905         0.000000     -0.302458     -0.000000
      6.76118      2.91214     12.03175        -0.261936      0.151229     -0.000000
      0.84367      1.46077      2.40635        -0.076004     -0.043881     -0.000000
      0.00000      8.76253      7.21905         0.000000      0.087762     -0.000000
      6.74535     -2.92076     12.03175         0.076004     -0.043881     -0.000000
      4.21568      1.46077     12.03175         0.076004     -0.043881     -0.000000
      5.90302      1.46077      2.40635        -0.076004     -0.043881     -0.000000
      5.05935     -0.00052      7.21905         0.000000      0.087762     -0.000000
      1.68600      5.84229     12.03175         0.076004     -0.043881     -0.000000
      3.37335      5.84229      2.40635        -0.076004     -0.043881     -0.000000
      2.52968      4.38101      7.21905         0.000000      0.087762     -0.000000
 -----------------------------------------------------------------------------------
    total drift:                                0.001022      0.001645     -0.001713


--------------------------------------------------------------------------------------------------------



  FREE ENERGIE OF THE ION-ELECTRON SYSTEM (eV)
  ---------------------------------------------------
  free  energy   TOTEN  =      -632.93513755 eV

  energy  without entropy=     -632.93513755  energy(sigma->0) =     -632.93513755
 


--------------------------------------------------------------------------------------------------------


    POTLOK:  cpu time      0.1206: real time      0.1213


--------------------------------------------------------------------------------------------------------


 stress matrix after NEB project (eV)
    -19.88896      0.00000      0.00000
      0.00000    -19.88896     -0.00000
     -0.00000      0.00000    -17.06920
  FORCES: max atom, RMS     0.328359    0.193111
  FORCE total and by dimension    2.006869    0.302458
  Stress total and by dimension   32.901356   19.888963
     LOOP+:  cpu time     72.9584: real time     73.8760
    4ORBIT:  cpu time      0.0000: real time      0.0000



 total charge

# of ion       s       p       d       tot
------------------------------------------
    1        0.087   0.180   0.000   0.267
    2        0.084   0.173   0.000   0.256
    3        0.087   0.180   0.000   0.267
    4        0.084   0.173   0.000   0.256
    5        0.086   0.177   0.000   0.263
    6        0.084   0.173   0.000   0.256
    7        0.086   0.177   0.000   0.263
    8        0.087   0.180   0.000   0.267
    9        0.086   0.177   0.000   0.263
   10        0.084   0.173   0.000   0.256
   11        0.086   0.177   0.000   0.263
   12        0.084   0.173   0.000   0.256
   13        0.086   0.177   0.000   0.263
   14        0.087   0.180   0.000   0.267
   15        0.086   0.177   0.000   0.263
   16        0.087   0.180   0.000   0.267
   17        0.084   0.173   0.000   0.256
   18        0.087   0.180   0.000   0.267
   19        0.086   0.177   0.000   0.263
   20        0.087   0.180   0.000   0.267
   21        0.086   0.177   0.000   0.263
   22        0.087   0.180   0.000   0.267
   23        0.084   0.173   0.000   0.256
   24        0.087   0.180   0.000   0.267
   25        0.084   0.173   0.000   0.256
   26        0.086   0.177   0.000   0.263
   27        0.084   0.173   0.000   0.256
   28        1.561   3.463   0.000   5.024
   29        1.560   3.460   0.000   5.020
   30        1.560   3.460   0.000   5.020
   31        1.561   3.463   0.000   5.024
   32        1.560   3.460   0.000   5.020
   33        1.560   3.460   0.000   5.020
   34        1.562   3.459   0.000   5.021
   35        1.561   3.463   0.000   5.024
   36        1.561   3.463   0.000   5.024
   37        1.562   3.459   0.000   5.021
   38        1.561   3.463   0.000   5.024
   39        1.561   3.463   0.000   5.024
   40        1.560   3.460   0.000   5.020
   41        1.562   3.459   0.000   5.021
   42        1.562   3.459   0.000   5.021
   43        1.560   3.460   0.000   5.020
   44        1.562   3.459   0.000   5.021
   45        1.562   3.459   0.000   5.021
   46        1.562   3.459   0.000   5.021
   47        1.561   3.463   0.000   5.024
   48        1.561   3.463   0.000   5.024
   49        1.562   3.459   0.000   5.021
   50        1.561   3.463   0.000   5.024
   51        1.561   3.463   0.000   5.024
   52        1.560   3.460   0.000   5.020
   53        1.562   3.459   0.000   5.021
   54        1.562   3.459   0.000   5.021
   55        1.560   3.460   0.000   5.020
   56        1.562   3.459   0.000   5.021
   57        1.562   3.459   0.000   5.021
   58        1.561   3.463   0.000   5.024
   59        1.560   3.460   0.000   5.020
   60        1.560   3.460   0.000   5.020
   61        1.561   3.463   0.000   5.024
   62        1.560   3.460   0.000   5.020
   63        1.560   3.460   0.000   5.020
   64        1.560   3.460   0.000   5.020
   65        1.562   3.459   0.000   5.021
   66        1.562   3.459   0.000   5.021
   67        1.560   3.460   0.000   5.020
   68        1.562   3.459   0.000   5.021
   69        1.562   3.459   0.000   5.021
   70        1.561   3.463   0.000   5.024
   71        1.560   3.460   0.000   5.020
   72        1.560   3.460   0.000   5.020
   73        1.561   3.463   0.000   5.024
   74        1.560   3.460   0.000   5.020
   75        1.560   3.460   0.000   5.020
   76        1.562   3.459   0.000   5.021
   77        1.561   3.463   0.000   5.024
   78        1.561   3.463   0.000   5.024
   79        1.562   3.459   0.000   5.021
   80        1.561   3.463   0.000   5.024
   81        1.561   3.463   0.000   5.024
   82        0.344   0.533   4.794   5.671
   83        0.344   0.533   4.794   5.671
   84        0.344   0.533   4.794   5.671
   85        0.344   0.533   4.794   5.671
   86        0.344   0.533   4.794   5.671
   87        0.344   0.533   4.794   5.671
   88        0.344   0.533   4.794   5.671
   89        0.344   0.533   4.794   5.671
   90        0.344   0.533   4.794   5.671
   91        0.390   0.558   6.941   7.889
   92        0.390   0.558   6.941   7.889
   93        0.390   0.558   6.941   7.889
   94        0.390   0.558   6.941   7.889
   95        0.390   0.558   6.941   7.889
   96        0.390   0.558   6.941   7.889
   97        0.390   0.558   6.941   7.889
   98        0.390   0.558   6.941   7.889
   99        0.390   0.558   6.941   7.889
  100        0.350   0.448   8.261   9.059
  101        0.350   0.448   8.261   9.059
  102        0.350   0.448   8.261   9.059
  103        0.350   0.448   8.261   9.059
  104        0.350   0.448   8.261   9.059
  105        0.350   0.448   8.261   9.059
  106        0.350   0.448   8.261   9.059
  107        0.350   0.448   8.261   9.059
  108        0.350   0.448   8.261   9.059
--------------------------------------------------
tot         96.367 205.501 179.959 481.827



 magnetization (x)

# of ion       s       p       d       tot
------------------------------------------
    1        0.004   0.006   0.000   0.009
    2        0.003   0.005   0.000   0.008
    3        0.004   0.006   0.000   0.009
    4        0.003   0.005   0.000   0.008
    5        0.003   0.005   0.000   0.009
    6        0.003   0.005   0.000   0.008
    7        0.003   0.005   0.000   0.009
    8        0.004   0.006   0.000   0.009
    9        0.003   0.005   0.000   0.009
   10        0.003   0.005   0.000   0.008
   11        0.003   0.005   0.000   0.009
   12        0.003   0.005   0.000   0.008
   13        0.003   0.005   0.000   0.009
   14        0.004   0.006   0.000   0.009
   15        0.003   0.005   0.000   0.009
   16        0.004   0.006   0.000   0.009
   17        0.003   0.005   0.000   0.008
   18        0.004   0.006   0.000   0.009
   19        0.003   0.005   0.000   0.009
   20        0.004   0.006   0.000   0.009
   21        0.003   0.005   0.000   0.009
   22        0.004   0.006   0.000   0.009
   23        0.003   0.005   0.000   0.008
   24        0.004   0.006   0.000   0.009
   25        0.003   0.005   0.000   0.008
   26        0.003   0.005   0.000   0.009
   27        0.003   0.005   0.000   0.008
   28        0.008   0.097   0.000   0.105
   29        0.007   0.077   0.000   0.085
   30        0.007   0.077   0.000   0.085
   31        0.008   0.097   0.000   0.105
   32        0.007   0.077   0.000   0.085
   33        0.007   0.077   0.000   0.085
   34        0.007   0.093   0.000   0.101
   35        0.008   0.097   0.000   0.105
   36        0.008   0.097   0.000   0.105
   37        0.007   0.093   0.000   0.101
   38        0.008   0.097   0.000   0.105
   39        0.008   0.097   0.000   0.105
   40        0.007   0.077   0.000   0.085
   41        0.007   0.093   0.000   0.101
   42        0.007   0.093   0.000   0.101
   43        0.007   0.077   0.000   0.085
   44        0.007   0.093   0.000   0.101
   45        0.007   0.093   0.000   0.101
   46        0.007   0.093   0.000   0.101
   47        0.008   0.097   0.000   0.105
   48        0.008   0.097   0.000   0.105
   49        0.007   0.093   0.000   0.101
   50        0.008   0.097   0.000   0.105
   51        0.008   0.097   0.000   0.105
   52        0.007   0.077   0.000   0.085
   53        0.007   0.093   0.000   0.101
   54        0.007   0.093   0.000   0.101
   55        0.007   0.077   0.000   0.085
   56        0.007   0.093   0.000   0.101
   57        0.007   0.093   0.000   0.101
   58        0.008   0.097   0.000   0.105
   59        0.007   0.077   0.000   0.085
   60        0.007   0.077   0.000   0.085
   61        0.008   0.097   0.000   0.105
   62        0.007   0.077   0.000   0.085
   63        0.007   0.077   0.000   0.085
   64        0.007   0.077   0.000   0.085
   65        0.007   0.093   0.000   0.101
   66        0.007   0.093   0.000   0.101
   67        0.007   0.077   0.000   0.085
   68        0.007   0.093   0.000   0.101
   69        0.007   0.093   0.000   0.101
   70        0.008   0.097   0.000   0.105
   71        0.007   0.077   0.000   0.085
   72        0.007   0.077   0.000   0.085
   73        0.008   0.097   0.000   0.105
   74        0.007   0.077   0.000   0.085
   75        0.007   0.077   0.000   0.085
   76        0.007   0.093   0.000   0.101
   77        0.008   0.097   0.000   0.105
   78        0.008   0.097   0.000   0.105
   79        0.007   0.093   0.000   0.101
   80        0.008   0.097   0.000   0.105
   81        0.008   0.097   0.000   0.105
   82        0.021   0.031   3.252   3.305
   83        0.021   0.031   3.252   3.305
   84        0.021   0.031   3.252   3.305
   85        0.021   0.031   3.252   3.305
   86        0.021   0.031   3.252   3.305
   87        0.021   0.031   3.252   3.305
   88        0.021   0.031   3.252   3.305
   89        0.021   0.031   3.252   3.305
   90        0.021   0.031   3.252   3.305
   91        0.015   0.013   3.157   3.185
   92        0.015   0.013   3.157   3.185
   93        0.015   0.013   3.157   3.185
   94        0.015   0.013   3.157   3.185
   95        0.015   0.013   3.157   3.185
   96        0.015   0.013   3.157   3.185
   97        0.015   0.013   3.157   3.185
   98        0.015   0.013   3.157   3.185
   99        0.015   0.013   3.157   3.185
  100        0.012   0.005   1.767   1.784
  101        0.012   0.005   1.767   1.784
  102        0.012   0.005   1.767   1.784
  103        0.012   0.005   1.767   1.784
  104        0.012   0.005   1.767   1.784
  105        0.012   0.005   1.767   1.784
  106        0.012   0.005   1.767   1.784
  107        0.012   0.005   1.767   1.784
  108        0.012   0.005   1.767   1.784
--------------------------------------------------
tot          0.945   5.388  73.579  79.912
 

 total amount of memory used by VASP MPI-rank0    41802. kBytes
=======================================================================

   base      :      30000. kBytes
   nonl-proj :       3740. kBytes
   fftplans  :       1387. kBytes
   grid      :       3834. kBytes
   one-center:        217. kBytes
   wavefun   :       2624. kBytes
 
  
  
 General timing and accounting informations for this job:
 ========================================================
  
                  Total CPU time used (sec):       78.614
                            User time (sec):       75.765
                          System time (sec):        2.850
                         Elapsed time (sec):       80.449
  
                   Maximum memory used (kb):      437124.
                   Average memory used (kb):          N/A
  
                          Minor page faults:        55626
                          Major page faults:            0
                 Voluntary context switches:         2275
