       N       E                     dE             d eps       ncg     rms          rms(c)
DAV:   1     0.759357576586E+04    0.75936E+04   -0.24359E+05  9792   0.159E+03
DAV:   2     0.998666919463E+03   -0.65949E+04   -0.60282E+04  9936   0.452E+02
DAV:   3    -0.591872972644E+03   -0.15905E+04   -0.14709E+04 10480   0.229E+02
DAV:   4    -0.768664594028E+03   -0.17679E+03   -0.17209E+03 13504   0.849E+01
DAV:   5    -0.775768573610E+03   -0.71040E+01   -0.70418E+01 13712   0.195E+01    0.130E+02
RMM:   6    -0.724506838604E+03    0.51262E+02   -0.15823E+03 13673   0.952E+01    0.299E+02
RMM:   7    -0.624877003416E+03    0.99630E+02   -0.20081E+02 11841   0.380E+01    0.141E+02
RMM:   8    -0.610653355168E+03    0.14224E+02   -0.13037E+02 11254   0.251E+01    0.117E+02
RMM:   9    -0.608737740160E+03    0.19156E+01   -0.30862E+01 12234   0.142E+01    0.512E+01
RMM:  10    -0.611561016003E+03   -0.28233E+01   -0.12853E+01 11954   0.840E+00    0.466E+01
RMM:  11    -0.613960544156E+03   -0.23995E+01   -0.11410E+01 11992   0.620E+00    0.301E+01
RMM:  12    -0.613841373499E+03    0.11917E+00   -0.24828E+00 11939   0.353E+00    0.201E+01
RMM:  13    -0.613442519136E+03    0.39885E+00   -0.10846E+00 12199   0.224E+00    0.171E+01
RMM:  14    -0.613405291014E+03    0.37228E-01   -0.77873E-01 12009   0.187E+00    0.118E+01
RMM:  15    -0.613207320813E+03    0.19797E+00   -0.57830E-01 11735   0.155E+00    0.712E+00
RMM:  16    -0.613155862762E+03    0.51458E-01   -0.46279E-01 11911   0.124E+00    0.375E+00
RMM:  17    -0.613205560949E+03   -0.49698E-01   -0.14894E-01 13665   0.680E-01    0.205E+00
RMM:  18    -0.613219885999E+03   -0.14325E-01   -0.27518E-02 12309   0.377E-01    0.765E-01
RMM:  19    -0.613221385327E+03   -0.14993E-02   -0.11176E-02 12782   0.195E-01    0.953E-01
RMM:  20    -0.613222249858E+03   -0.86453E-03   -0.58046E-03 11544   0.201E-01    0.183E-01
RMM:  21    -0.613222707579E+03   -0.45772E-03   -0.19453E-03 14791   0.782E-02    0.130E-01
RMM:  22    -0.613222932481E+03   -0.22490E-03   -0.39051E-04 12257   0.471E-02    0.479E-02
RMM:  23    -0.613222978304E+03   -0.45823E-04   -0.18575E-04 12979   0.248E-02    0.360E-02
RMM:  24    -0.613223018894E+03   -0.40590E-04   -0.53276E-05  9997   0.185E-02    0.336E-02
RMM:  25    -0.613223035783E+03   -0.16889E-04   -0.24641E-05  7750   0.134E-02    0.185E-02
RMM:  26    -0.613223041323E+03   -0.55408E-05   -0.96067E-06  6951   0.822E-03
   1 F= -.63317035E+03 E0= -.63317035E+03  d E =-.138068E-16  mag=    81.0017
