unknown system                          
           1
     7.589025   -4.381526    0.000000
     0.000000    8.763052    0.000000
     0.000000    0.000000   14.438103
   Li   O    Mn   Co   Ni
    27    54     9     9     9
Direct configuration=     1
   0.00000000  0.00363240  0.00000000
   0.22409782  0.11111111  0.33333333
   0.10747871  0.21858983  0.66666667
   0.33333333  0.00187560  0.00000000
   0.55015963  0.11111111  0.33333333
   0.44256884  0.22034662  0.66666667
   0.66666667  0.99460407  0.00000000
   0.89252129  0.11111111  0.33333333
   0.78317370  0.22761815  0.66666667
   0.00000000  0.33520893  0.00000000
   0.21682630  0.44444444  0.33333333
   0.10923551  0.55367996  0.66666667
   0.33333333  0.32793741  0.00000000
   0.55918795  0.44444444  0.33333333
   0.44984037  0.56095148  0.66666667
   0.66666667  0.33696573  0.00000000
   0.89076449  0.44444444  0.33333333
   0.77414538  0.55192316  0.66666667
   0.00000000  0.66127074  0.00000000
   0.22585462  0.77777778  0.33333333
   0.11650704  0.89428482  0.66666667
   0.33333333  0.67029906  0.00000000
   0.55743116  0.77777778  0.33333333
   0.44081205  0.88525649  0.66666667
   0.66666667  0.66854227  0.00000000
   0.88349296  0.77777778  0.33333333
   0.77590218  0.88701329  0.66666667
   0.23174923  0.11029136  0.09164091
   0.98850503  0.99032300  0.24367054
   0.10929314  0.23189922  0.42299613
   0.23256897  0.11193086  0.57502575
   0.01149497  0.00181797  0.75632946
   0.12078811  0.22040425  0.91033721
   0.55804478  0.12379919  0.09071098
   0.33251359  0.00952700  0.24169242
   0.43409769  0.21269522  0.42497425
   0.54535670  0.09842303  0.57595568
   0.33415308  0.01034675  0.75830758
   0.43491744  0.21187547  0.90835909
   0.87921189  0.09961614  0.08966279
   0.67935474  0.00248922  0.24262235
   0.78797663  0.21973300  0.42404432
   0.89070686  0.12260608  0.57700387
   0.65397859  0.98980115  0.75737765
   0.77528855  0.23242108  0.90928902
   0.22471145  0.45713252  0.09071098
   0.99918025  0.34286034  0.24169242
   0.10076436  0.54602855  0.42497425
   0.21202337  0.43175637  0.57595568
   0.00081975  0.34368008  0.75830758
   0.10158411  0.54520881  0.90835909
   0.54587856  0.43294947  0.08966279
   0.34602141  0.33582256  0.24262235
   0.45464330  0.55306633  0.42404432
   0.55737353  0.45593942  0.57700387
   0.32064526  0.32313448  0.75737765
   0.44195522  0.56575441  0.90928902
   0.89841589  0.44362470  0.09164091
   0.65517169  0.32365633  0.24367054
   0.77595980  0.56523256  0.42299613
   0.89923564  0.44526419  0.57502575
   0.67816164  0.33515131  0.75632946
   0.78745478  0.55373758  0.91033721
   0.21254522  0.76628280  0.08966279
   0.01268808  0.66915589  0.24262235
   0.12130996  0.88639967  0.42404432
   0.22404020  0.78927275  0.57700387
   0.98731192  0.65646781  0.75737765
   0.10862189  0.89908774  0.90928902
   0.56508256  0.77695803  0.09164091
   0.32183836  0.65698967  0.24367054
   0.44262647  0.89856589  0.42299613
   0.56590231  0.77859752  0.57502575
   0.34482831  0.66848464  0.75632946
   0.45412144  0.88707092  0.91033721
   0.89137811  0.79046585  0.09071098
   0.66584692  0.67619367  0.24169242
   0.76743103  0.87936189  0.42497425
   0.87869004  0.76508970  0.57595568
   0.66748641  0.67701342  0.75830758
   0.76825077  0.87854214  0.90835909
   0.22210093  0.11111111  0.83333333
   0.44456574  0.22234352  0.16666667
   0.33333333  0.99987870  0.50000000
   0.11123241  0.55567685  0.16666667
   0.00000000  0.33321204  0.50000000
   0.88876759  0.44444444  0.83333333
   0.55543426  0.77777778  0.83333333
   0.77789907  0.88901019  0.16666667
   0.66666667  0.66654537  0.50000000
   0.55758238  0.11111111  0.83333333
   0.77575095  0.22019540  0.16666667
   0.66666667  0.00202682  0.50000000
   0.22424905  0.44444444  0.83333333
   0.44241762  0.55352873  0.16666667
   0.33333333  0.33536016  0.50000000
   0.10908429  0.88686207  0.16666667
   0.00000000  0.66869349  0.50000000
   0.89091571  0.77777778  0.83333333
   0.11117026  0.22228137  0.16666667
   0.00000000  0.99994085  0.50000000
   0.88882974  0.11111111  0.83333333
   0.55549641  0.44444444  0.83333333
   0.77783693  0.55561471  0.16666667
   0.66666667  0.33327418  0.50000000
   0.22216307  0.77777778  0.83333333
   0.44450359  0.88894804  0.16666667
   0.33333333  0.66660752  0.50000000
