  108  108    1    2
  0.8890532E+01  0.8763052E-09  0.8763052E-09  0.1443810E-08  0.5000000E-15
  1.000000000000000E-004
  CAR 
 unknown system                          
    585      6    408
