       N       E                     dE             d eps       ncg     rms          rms(c)
DAV:   1     0.100046180411E+05    0.10005E+05   -0.36928E+05  4160   0.180E+03
DAV:   2     0.103398959175E+04   -0.89706E+04   -0.83817E+04  4032   0.542E+02
DAV:   3    -0.399220403735E+03   -0.14332E+04   -0.12550E+04  4336   0.213E+02
DAV:   4    -0.554019111220E+03   -0.15480E+03   -0.15270E+03  5008   0.599E+01
DAV:   5    -0.568712017547E+03   -0.14693E+02   -0.14574E+02  7136   0.150E+01    0.968E+01
RMM:   6    -0.709555679210E+03   -0.14084E+03   -0.31454E+02  5023   0.343E+01    0.228E+02
RMM:   7    -0.589094036757E+03    0.12046E+03   -0.14323E+02  4857   0.275E+01    0.644E+01
RMM:   8    -0.608058819313E+03   -0.18965E+02   -0.86973E+01  4779   0.180E+01    0.835E+01
RMM:   9    -0.595591298461E+03    0.12468E+02   -0.28465E+01  4839   0.111E+01    0.432E+01
RMM:  10    -0.598958289894E+03   -0.33670E+01   -0.83553E+00  5113   0.497E+00    0.346E+01
RMM:  11    -0.596346630910E+03    0.26117E+01   -0.53925E+00  5004   0.390E+00    0.251E+01
RMM:  12    -0.593896523060E+03    0.24501E+01   -0.54699E+00  5445   0.383E+00    0.153E+01
RMM:  13    -0.596949908670E+03   -0.30534E+01   -0.14371E+00  5923   0.202E+00    0.266E+01
RMM:  14    -0.597392163615E+03   -0.44225E+00   -0.96460E-01  5367   0.216E+00    0.247E+01
RMM:  15    -0.600519617194E+03   -0.31275E+01   -0.52858E-01  5954   0.142E+00    0.304E+01
RMM:  16    -0.599055399087E+03    0.14642E+01   -0.19511E-01  6116   0.947E-01    0.302E+01
RMM:  17    -0.599644282076E+03   -0.58888E+00   -0.15481E-01  6080   0.817E-01    0.296E+01
RMM:  18    -0.601961975361E+03   -0.23177E+01   -0.28882E+00  7547   0.325E+00    0.240E+01
RMM:  19    -0.603352591425E+03   -0.13906E+01   -0.51879E-01  7094   0.138E+00    0.208E+01
RMM:  20    -0.605702773117E+03   -0.23502E+01   -0.34842E+00  7617   0.378E+00    0.112E+01
RMM:  21    -0.606214444096E+03   -0.51167E+00   -0.19371E+00  7512   0.251E+00    0.791E+00
RMM:  22    -0.606248918213E+03   -0.34474E-01   -0.77380E-01  7366   0.162E+00    0.100E+01
RMM:  23    -0.606293914623E+03   -0.44996E-01   -0.67047E-02  7186   0.424E-01    0.102E+01
RMM:  24    -0.606340486994E+03   -0.46572E-01   -0.40532E-02  6879   0.402E-01    0.974E+00
RMM:  25    -0.607169781030E+03   -0.82929E+00   -0.61657E-01  7579   0.153E+00    0.640E+00
RMM:  26    -0.607593387453E+03   -0.42361E+00   -0.21914E-01  7248   0.919E-01    0.517E+00
RMM:  27    -0.607917239170E+03   -0.32385E+00   -0.10788E-01  7141   0.656E-01    0.386E+00
RMM:  28    -0.608202127335E+03   -0.28489E+00   -0.21441E-01  7489   0.918E-01    0.159E+00
RMM:  29    -0.608256336815E+03   -0.54209E-01   -0.73887E-02  6876   0.555E-01    0.955E-01
RMM:  30    -0.608273484810E+03   -0.17148E-01   -0.16701E-02  6037   0.285E-01    0.692E-01
RMM:  31    -0.608280722846E+03   -0.72380E-02   -0.74628E-03  6213   0.190E-01    0.377E-01
RMM:  32    -0.608281479793E+03   -0.75695E-03   -0.26070E-03  6844   0.864E-02    0.330E-01
RMM:  33    -0.608282861425E+03   -0.13816E-02   -0.20244E-03  6438   0.887E-02    0.168E-01
RMM:  34    -0.608283921266E+03   -0.10598E-02   -0.22602E-03  6458   0.967E-02    0.103E-01
RMM:  35    -0.608284480334E+03   -0.55907E-03   -0.94908E-04  6719   0.515E-02    0.982E-02
RMM:  36    -0.608284680196E+03   -0.19986E-03   -0.49801E-04  6697   0.324E-02    0.877E-02
RMM:  37    -0.608284587000E+03    0.93196E-04   -0.61348E-04  6507   0.512E-02    0.910E-02
RMM:  38    -0.608284701109E+03   -0.11411E-03   -0.23872E-04  6189   0.227E-02    0.669E-02
RMM:  39    -0.608284808487E+03   -0.10738E-03   -0.16687E-04  6113   0.218E-02    0.582E-02
RMM:  40    -0.608284907837E+03   -0.99349E-04   -0.15077E-04  6096   0.216E-02    0.432E-02
RMM:  41    -0.608284939888E+03   -0.32052E-04   -0.10459E-04  5683   0.176E-02    0.502E-02
RMM:  42    -0.608284978181E+03   -0.38293E-04   -0.69947E-05  5540   0.146E-02    0.307E-02
RMM:  43    -0.608284987686E+03   -0.95044E-05   -0.44690E-05  5126   0.115E-02
   1 F= -.62823229E+03 E0= -.62823229E+03  d E =-.234815E-23  mag=    81.0013
