       N       E                     dE             d eps       ncg     rms          rms(c)
DAV:   1     0.100040087169E+05    0.10004E+05   -0.36900E+05 24976   0.179E+03
DAV:   2     0.103665075479E+04   -0.89674E+04   -0.83784E+04 24192   0.542E+02
DAV:   3    -0.399213863189E+03   -0.14359E+04   -0.12561E+04 25952   0.213E+02
DAV:   4    -0.554042323983E+03   -0.15483E+03   -0.15273E+03 29904   0.600E+01
DAV:   5    -0.568763999861E+03   -0.14722E+02   -0.14601E+02 43632   0.150E+01    0.969E+01
RMM:   6    -0.713358043474E+03   -0.14459E+03   -0.31720E+02 30341   0.347E+01    0.230E+02
RMM:   7    -0.589154678961E+03    0.12420E+03   -0.14404E+02 28825   0.278E+01    0.671E+01
RMM:   8    -0.608580412375E+03   -0.19426E+02   -0.90427E+01 28641   0.184E+01    0.883E+01
RMM:   9    -0.595521283745E+03    0.13059E+02   -0.28966E+01 28885   0.113E+01    0.440E+01
RMM:  10    -0.599275552955E+03   -0.37543E+01   -0.83314E+00 30488   0.500E+00    0.352E+01
RMM:  11    -0.596888571556E+03    0.23870E+01   -0.55428E+00 29779   0.398E+00    0.257E+01
RMM:  12    -0.594005180761E+03    0.28834E+01   -0.53770E+00 32370   0.379E+00    0.158E+01
RMM:  13    -0.596417368661E+03   -0.24122E+01   -0.17502E+00 34892   0.216E+00    0.241E+01
RMM:  14    -0.597022636355E+03   -0.60527E+00   -0.13276E+00 31415   0.252E+00    0.218E+01
RMM:  15    -0.600516862313E+03   -0.34942E+01   -0.93455E-01 33495   0.185E+00    0.291E+01
RMM:  16    -0.598951877813E+03    0.15650E+01   -0.16184E-01 37727   0.906E-01    0.287E+01
RMM:  17    -0.599539908522E+03   -0.58803E+00   -0.19992E-01 36008   0.908E-01    0.281E+01
RMM:  18    -0.602470685997E+03   -0.29308E+01   -0.38927E+00 45354   0.376E+00    0.214E+01
RMM:  19    -0.604406757087E+03   -0.19361E+01   -0.11908E+00 44384   0.210E+00    0.166E+01
RMM:  20    -0.606567706707E+03   -0.21609E+01   -0.46782E+00 45776   0.431E+00    0.737E+00
RMM:  21    -0.607154022705E+03   -0.58632E+00   -0.51885E-01 42982   0.126E+00    0.768E+00
RMM:  22    -0.607315730266E+03   -0.16171E+00   -0.23316E-01 40859   0.101E+00    0.810E+00
RMM:  23    -0.607652313324E+03   -0.33658E+00   -0.26888E-01 42831   0.105E+00    0.663E+00
RMM:  24    -0.607976795816E+03   -0.32448E+00   -0.39105E-01 42758   0.120E+00    0.413E+00
RMM:  25    -0.608171709784E+03   -0.19491E+00   -0.73947E-02 39545   0.535E-01    0.284E+00
RMM:  26    -0.608257469125E+03   -0.85759E-01   -0.17698E-01 41280   0.853E-01    0.108E+00
RMM:  27    -0.608246923627E+03    0.10545E-01   -0.65474E-02 37630   0.516E-01    0.120E+00
RMM:  28    -0.608276648098E+03   -0.29724E-01   -0.22961E-02 34478   0.357E-01    0.591E-01
RMM:  29    -0.608283140732E+03   -0.64926E-02   -0.75467E-03 38984   0.188E-01    0.384E-01
RMM:  30    -0.608286573243E+03   -0.34325E-02   -0.46675E-03 38583   0.134E-01    0.274E-01
RMM:  31    -0.608287319385E+03   -0.74614E-03   -0.46295E-03 37453   0.147E-01    0.230E-01
RMM:  32    -0.608288482467E+03   -0.11631E-02   -0.21902E-03 38330   0.101E-01    0.122E-01
RMM:  33    -0.608289103468E+03   -0.62100E-03   -0.16433E-03 39382   0.796E-02    0.832E-02
RMM:  34    -0.608289353449E+03   -0.24998E-03   -0.12106E-03 40916   0.595E-02    0.828E-02
RMM:  35    -0.608289571037E+03   -0.21759E-03   -0.84861E-04 39146   0.573E-02    0.850E-02
RMM:  36    -0.608289700573E+03   -0.12954E-03   -0.54011E-04 39294   0.430E-02    0.381E-02
RMM:  37    -0.608289735086E+03   -0.34513E-04   -0.45078E-04 40205   0.275E-02    0.373E-02
RMM:  38    -0.608289794556E+03   -0.59469E-04   -0.25213E-04 38765   0.211E-02    0.210E-02
RMM:  39    -0.608289816558E+03   -0.22002E-04   -0.15150E-04 36385   0.169E-02    0.234E-02
RMM:  40    -0.608289833191E+03   -0.16633E-04   -0.77544E-05 31211   0.136E-02    0.166E-02
RMM:  41    -0.608289836723E+03   -0.35319E-05   -0.71390E-05 33536   0.134E-02
   1 F= -.62823714E+03 E0= -.62823714E+03  d E =-.126353E-25  mag=    81.0031
