       N       E                     dE             d eps       ncg     rms          rms(c)
DAV:   1     0.100046194441E+05    0.10005E+05   -0.36928E+05  4160   0.180E+03
DAV:   2     0.103398973414E+04   -0.89706E+04   -0.83817E+04  4032   0.542E+02
DAV:   3    -0.399220505953E+03   -0.14332E+04   -0.12550E+04  4336   0.213E+02
DAV:   4    -0.554019229953E+03   -0.15480E+03   -0.15270E+03  5008   0.599E+01
DAV:   5    -0.568712129543E+03   -0.14693E+02   -0.14574E+02  7136   0.150E+01    0.968E+01
RMM:   6    -0.709557010996E+03   -0.14084E+03   -0.31454E+02  5023   0.343E+01    0.228E+02
RMM:   7    -0.589094138802E+03    0.12046E+03   -0.14323E+02  4857   0.275E+01    0.644E+01
RMM:   8    -0.608059210675E+03   -0.18965E+02   -0.86976E+01  4779   0.180E+01    0.835E+01
RMM:   9    -0.595590867665E+03    0.12468E+02   -0.28465E+01  4839   0.111E+01    0.432E+01
RMM:  10    -0.598958430349E+03   -0.33676E+01   -0.83548E+00  5113   0.497E+00    0.346E+01
RMM:  11    -0.596346885074E+03    0.26115E+01   -0.53929E+00  5004   0.390E+00    0.251E+01
RMM:  12    -0.593896417017E+03    0.24505E+01   -0.54695E+00  5444   0.383E+00    0.153E+01
RMM:  13    -0.596949861724E+03   -0.30534E+01   -0.14376E+00  5923   0.202E+00    0.266E+01
RMM:  14    -0.597392084780E+03   -0.44222E+00   -0.96461E-01  5367   0.216E+00    0.247E+01
RMM:  15    -0.600520052355E+03   -0.31280E+01   -0.52874E-01  5955   0.142E+00    0.304E+01
RMM:  16    -0.599055716393E+03    0.14643E+01   -0.19511E-01  6115   0.947E-01    0.302E+01
RMM:  17    -0.599644663352E+03   -0.58895E+00   -0.15476E-01  6079   0.817E-01    0.296E+01
RMM:  18    -0.601962811587E+03   -0.23181E+01   -0.28898E+00  7548   0.325E+00    0.240E+01
RMM:  19    -0.603353748628E+03   -0.13909E+01   -0.51916E-01  7095   0.138E+00    0.208E+01
RMM:  20    -0.605703836532E+03   -0.23501E+01   -0.34903E+00  7616   0.378E+00    0.112E+01
RMM:  21    -0.606215325748E+03   -0.51149E+00   -0.19334E+00  7511   0.251E+00    0.791E+00
RMM:  22    -0.606249745705E+03   -0.34420E-01   -0.77209E-01  7365   0.162E+00    0.100E+01
RMM:  23    -0.606294894929E+03   -0.45149E-01   -0.66970E-02  7185   0.424E-01    0.102E+01
RMM:  24    -0.606342112687E+03   -0.47218E-01   -0.41062E-02  6884   0.404E-01    0.974E+00
RMM:  25    -0.607170733209E+03   -0.82862E+00   -0.61756E-01  7577   0.154E+00    0.640E+00
RMM:  26    -0.607596817025E+03   -0.42608E+00   -0.21786E-01  7247   0.917E-01    0.516E+00
RMM:  27    -0.607919333196E+03   -0.32252E+00   -0.10725E-01  7134   0.655E-01    0.384E+00
RMM:  28    -0.608202466271E+03   -0.28313E+00   -0.21241E-01  7488   0.913E-01    0.158E+00
RMM:  29    -0.608256522529E+03   -0.54056E-01   -0.73668E-02  6871   0.554E-01    0.950E-01
RMM:  30    -0.608273610619E+03   -0.17088E-01   -0.16626E-02  6038   0.284E-01    0.687E-01
RMM:  31    -0.608280728797E+03   -0.71182E-02   -0.73522E-03  6204   0.189E-01    0.376E-01
RMM:  32    -0.608281491442E+03   -0.76264E-03   -0.26119E-03  6842   0.863E-02    0.327E-01
RMM:  33    -0.608282861319E+03   -0.13699E-02   -0.19953E-03  6448   0.879E-02    0.168E-01
RMM:  34    -0.608283922107E+03   -0.10608E-02   -0.22899E-03  6468   0.975E-02    0.103E-01
RMM:  35    -0.608284480432E+03   -0.55832E-03   -0.93661E-04  6744   0.513E-02    0.975E-02
RMM:  36    -0.608284681028E+03   -0.20060E-03   -0.49326E-04  6694   0.321E-02    0.860E-02
RMM:  37    -0.608284590445E+03    0.90583E-04   -0.60714E-04  6512   0.509E-02    0.907E-02
RMM:  38    -0.608284703897E+03   -0.11345E-03   -0.23727E-04  6201   0.225E-02    0.670E-02
RMM:  39    -0.608284806933E+03   -0.10304E-03   -0.16442E-04  6110   0.219E-02    0.586E-02
RMM:  40    -0.608284908673E+03   -0.10174E-03   -0.15283E-04  6101   0.220E-02    0.428E-02
RMM:  41    -0.608284942460E+03   -0.33787E-04   -0.10290E-04  5642   0.173E-02    0.481E-02
RMM:  42    -0.608284976810E+03   -0.34351E-04   -0.61113E-05  5361   0.137E-02    0.322E-02
RMM:  43    -0.608284988460E+03   -0.11650E-04   -0.56944E-05  5495   0.125E-02    0.179E-02
RMM:  44    -0.608284988576E+03   -0.11556E-06   -0.89328E-06  3648   0.839E-03
   1 F= -.62823229E+03 E0= -.62823229E+03  d E =-.240261E-23  mag=    80.9998
