 vasp.6.3.2 27Jun22 (build Dec 21 2022 11:15:52) complex                        
  
 executed on Aspire2aVTSTlibbeefS date 2023.03.22  11:16:20
 running  128 mpi-ranks, with    1 threads/rank
 distrk:  each k-point on   64 cores,    2 groups
 distr:  one band on NCORE=  16 cores,    4 groups


--------------------------------------------------------------------------------------------------------


 INCAR:
   ENCUT = 400.000000
   SIGMA = 0.050000
   EDIFF = 1.00e-05
   EDIFFG = -2.00e-02
   ALGO = Fast
   GGA = PE
   PREC = Normal
   IBRION = 2
   ICHARG = 1
   IDIPOL = 3
   ISIF = 2
   ISMEAR = 0
   ISPIN = 2
   ISTART = 1
   ISYM = 0
   KPAR = 2
   NELM = 90
   NELMIN = 4
   NPAR = 4
   NSIM = 8
   NSW = 500
   NUPDOWN = -1
   IVDW = 11
   LCHARG = .FALSE.
   LDIPOL = .FALSE.
   LWAVE = .FALSE.
   LREAL = Auto

 POTCAR:    PAW_PBE Zn 06Sep2000                  
 POTCAR:    PAW_PBE Cu 22Jun2005                  
 POTCAR:    PAW_PBE O 08Apr2002                   
 -----------------------------------------------------------------------------
|                                                                             |
|           W    W    AA    RRRRR   N    N  II  N    N   GGGG   !!!           |
|           W    W   A  A   R    R  NN   N  II  NN   N  G    G  !!!           |
|           W    W  A    A  R    R  N N  N  II  N N  N  G       !!!           |
|           W WW W  AAAAAA  RRRRR   N  N N  II  N  N N  G  GGG   !            |
|           WW  WW  A    A  R   R   N   NN  II  N   NN  G    G                |
|           W    W  A    A  R    R  N    N  II  N    N   GGGG   !!!           |
|                                                                             |
|     You use a magnetic or noncollinear calculation, but did not specify     |
|     the initial magnetic moment with the MAGMOM tag. Note that a            |
|     default of 1 will be used for all atoms. This ferromagnetic setup       |
|     may break the symmetry of the crystal, in particular it may rule        |
|     out finding an antiferromagnetic solution. Thence, we recommend         |
|     setting the initial magnetic moment manually or verifying carefully     |
|     that this magnetic setup is desired.                                    |
|                                                                             |
 -----------------------------------------------------------------------------

 POTCAR:    PAW_PBE Zn 06Sep2000                  
   VRHFIN =Zn: d10 p2                                                                               
   LEXCH  = PE                                                                                      
   EATOM  =  1748.8345 eV,  128.5357 Ry                                                             
                                                                                                    
   TITEL  = PAW_PBE Zn 06Sep2000                                                                    
   LULTRA =        F    use ultrasoft PP ?                                                          
   IUNSCR =        1    unscreen: 0-lin 1-nonlin 2-no                                               
   RPACOR =    2.000    partial core radius                                                         
   POMASS =   65.390; ZVAL   =   12.000    mass and valenz                                          
   RCORE  =    2.300    outmost cutoff radius                                                       
   RWIGS  =    2.400; RWIGS  =    1.270    wigner-seitz radius (au A)                               
   ENMAX  =  276.723; ENMIN  =  207.542 eV                                                          
   RCLOC  =    1.828    cutoff for local pot                                                        
   LCOR   =        T    correct aug charges                                                         
   LPAW   =        T    paw PP                                                                      
   EAUG   =  575.892                                                                                
   DEXC   =    0.000                                                                                
   RMAX   =    2.347    core radius for proj-oper                                                   
   RAUG   =    1.300    factor for augmentation sphere                                              
   RDEP   =    2.324    radius for radial grids                                                     
   RDEPT  =    1.788    core radius for aug-charge                                                  
                                                                                                    
   Atomic configuration                                                                             
    9 entries                                                                                       
     n  l   j            E        occ.                                                              
     1  0  0.50     -9524.6913   2.0000                                                             
     2  0  0.50     -1158.1882   2.0000                                                             
     2  1  1.50     -1003.8506   6.0000                                                             
     3  0  0.50      -129.2194   2.0000                                                             
     3  1  1.50       -83.3890   6.0000                                                             
     3  2  2.50       -10.1410  10.0000                                                             
     4  0  0.50        -5.9785   2.0000                                                             
     4  1  0.50        -4.0817   0.0000                                                             
     4  3  2.50        -1.3606   0.0000                                                             
   Description                                                                                      
     l       E           TYP  RCUT    TYP  RCUT                                                     
     2    -10.1410010     23  2.300                                                                 
     2    -11.5015836     23  2.300                                                                 
     0     -5.9785163     23  2.300                                                                 
     0      1.1858015     23  2.300                                                                 
     1     -2.7211652     23  2.300                                                                 
     1     13.2444212     23  2.300                                                                 
  local pseudopotential read in
  partial core-charges read in
  partial kinetic energy density read in
  atomic valenz-charges read in
  non local Contribution for L=           2  read in
    real space projection operators read in
  non local Contribution for L=           2  read in
    real space projection operators read in
  non local Contribution for L=           0  read in
    real space projection operators read in
  non local Contribution for L=           0  read in
    real space projection operators read in
  non local Contribution for L=           1  read in
    real space projection operators read in
  non local Contribution for L=           1  read in
    real space projection operators read in
    PAW grid and wavefunctions read in
 
   number of l-projection  operators is LMAX  =           6
   number of lm-projection operators is LMMAX =          18
 
 POTCAR:    PAW_PBE Cu 22Jun2005                  
   VRHFIN =Cu: d10 p1                                                                               
   LEXCH  = PE                                                                                      
   EATOM  =  1390.9808 eV,  102.2342 Ry                                                             
                                                                                                    
   TITEL  = PAW_PBE Cu 22Jun2005                                                                    
   LULTRA =        F    use ultrasoft PP ?                                                          
   IUNSCR =        1    unscreen: 0-lin 1-nonlin 2-no                                               
   RPACOR =    2.000    partial core radius                                                         
   POMASS =   63.546; ZVAL   =   11.000    mass and valenz                                          
   RCORE  =    2.300    outmost cutoff radius                                                       
   RWIGS  =    2.200; RWIGS  =    1.164    wigner-seitz radius (au A)                               
   ENMAX  =  295.446; ENMIN  =  221.585 eV                                                          
   ICORE  =        3    local potential                                                             
   LCOR   =        T    correct aug charges                                                         
   LPAW   =        T    paw PP                                                                      
   EAUG   =  586.980                                                                                
   DEXC   =    0.000                                                                                
   RMAX   =    2.344    core radius for proj-oper                                                   
   RAUG   =    1.300    factor for augmentation sphere                                              
   RDEP   =    2.302    radius for radial grids                                                     
   RDEPT  =    1.771    core radius for aug-charge                                                  
                                                                                                    
   Atomic configuration                                                                             
    9 entries                                                                                       
     n  l   j            E        occ.                                                              
     1  0  0.50     -8850.2468   2.0000                                                             
     2  0  0.50     -1062.3498   2.0000                                                             
     2  1  1.50      -916.8226   6.0000                                                             
     3  0  0.50      -114.6929   2.0000                                                             
     3  1  1.50       -72.1325   6.0000                                                             
     3  2  2.50        -5.0394  10.0000                                                             
     4  0  0.50        -4.6097   1.0000                                                             
     4  1  0.50        -4.0817   0.0000                                                             
     4  3  2.50        -1.3606   0.0000                                                             
   Description                                                                                      
     l       E           TYP  RCUT    TYP  RCUT                                                     
     2     -5.0393973     23  2.200                                                                 
     2     10.8846608     23  2.200                                                                 
     0     -4.6097109     23  2.200                                                                 
     0      8.2520465     23  2.200                                                                 
     1     -2.7211652     23  2.200                                                                 
     1     21.7055443     23  2.200                                                                 
     3      2.7211652     23  2.300                                                                 
  local pseudopotential read in
  partial core-charges read in
  partial kinetic energy density read in
  atomic valenz-charges read in
  non local Contribution for L=           2  read in
    real space projection operators read in
  non local Contribution for L=           2  read in
    real space projection operators read in
  non local Contribution for L=           0  read in
    real space projection operators read in
  non local Contribution for L=           0  read in
    real space projection operators read in
  non local Contribution for L=           1  read in
    real space projection operators read in
  non local Contribution for L=           1  read in
    real space projection operators read in
    PAW grid and wavefunctions read in
 
   number of l-projection  operators is LMAX  =           6
   number of lm-projection operators is LMMAX =          18
 
 POTCAR:    PAW_PBE O 08Apr2002                   
   VRHFIN =O: s2p4                                                                                  
   LEXCH  = PE                                                                                      
   EATOM  =   432.3788 eV,   31.7789 Ry                                                             
                                                                                                    
   TITEL  = PAW_PBE O 08Apr2002                                                                     
   LULTRA =        F    use ultrasoft PP ?                                                          
   IUNSCR =        1    unscreen: 0-lin 1-nonlin 2-no                                               
   RPACOR =    1.200    partial core radius                                                         
   POMASS =   16.000; ZVAL   =    6.000    mass and valenz                                          
   RCORE  =    1.520    outmost cutoff radius                                                       
   RWIGS  =    1.550; RWIGS  =    0.820    wigner-seitz radius (au A)                               
   ENMAX  =  400.000; ENMIN  =  300.000 eV                                                          
   ICORE  =        2    local potential                                                             
   LCOR   =        T    correct aug charges                                                         
   LPAW   =        T    paw PP                                                                      
   EAUG   =  605.392                                                                                
   DEXC   =    0.000                                                                                
   RMAX   =    1.553    core radius for proj-oper                                                   
   RAUG   =    1.300    factor for augmentation sphere                                              
   RDEP   =    1.550    radius for radial grids                                                     
   RDEPT  =    1.329    core radius for aug-charge                                                  
                                                                                                    
   Atomic configuration                                                                             
    4 entries                                                                                       
     n  l   j            E        occ.                                                              
     1  0  0.50      -514.6923   2.0000                                                             
     2  0  0.50       -23.9615   2.0000                                                             
     2  1  0.50        -9.0305   4.0000                                                             
     3  2  1.50        -9.5241   0.0000                                                             
   Description                                                                                      
     l       E           TYP  RCUT    TYP  RCUT                                                     
     0    -23.9615318     23  1.200                                                                 
     0     -9.5240782     23  1.200                                                                 
     1     -9.0304911     23  1.520                                                                 
     1      8.1634956     23  1.520                                                                 
     2     -9.5240782      7  1.500                                                                 
  local pseudopotential read in
  partial core-charges read in
  partial kinetic energy density read in
  kinetic energy density of atom read in
  atomic valenz-charges read in
  non local Contribution for L=           0  read in
    real space projection operators read in
  non local Contribution for L=           0  read in
    real space projection operators read in
  non local Contribution for L=           1  read in
    real space projection operators read in
  non local Contribution for L=           1  read in
    real space projection operators read in
    PAW grid and wavefunctions read in
 
   number of l-projection  operators is LMAX  =           4
   number of lm-projection operators is LMMAX =           8
 
 Optimization of the real space projectors (new method)

 maximal supplied QI-value         = 16.25
 optimisation between [QCUT,QGAM] = [ 10.24, 20.48] = [ 29.35,117.42] Ry 
 Optimized for a Real-space Cutoff    1.38 Angstroem

   l    n(q)    QCUT    max X(q) W(low)/X(q) W(high)/X(q)  e(spline) 
   2      7    10.239    46.356    0.21E-03    0.48E-03    0.10E-06
   2      7    10.239    41.843    0.21E-03    0.50E-03    0.10E-06
   0      8    10.239    48.958    0.37E-03    0.79E-04    0.11E-06
   0      8    10.239    32.776    0.35E-03    0.73E-04    0.10E-06
   1      8    10.239    17.787    0.49E-03    0.70E-03    0.14E-06
   1      8    10.239    14.435    0.42E-03    0.61E-03    0.13E-06
 Optimization of the real space projectors (new method)

 maximal supplied QI-value         = 16.25
 optimisation between [QCUT,QGAM] = [ 10.24, 20.48] = [ 29.35,117.42] Ry 
 Optimized for a Real-space Cutoff    1.55 Angstroem

   l    n(q)    QCUT    max X(q) W(low)/X(q) W(high)/X(q)  e(spline) 
   2      9    10.239     4.610    0.85E-04    0.29E-03    0.14E-06
   2      9    10.239     8.522    0.15E-03    0.50E-03    0.27E-06
   0     10    10.239    51.609    0.45E-04    0.99E-04    0.10E-06
   0     10    10.239    27.747    0.40E-04    0.93E-04    0.97E-07
   1      9    10.239    20.408    0.15E-03    0.78E-05    0.15E-06
   1      9    10.239    13.425    0.13E-03    0.71E-05    0.14E-06
 Optimization of the real space projectors (new method)

 maximal supplied QI-value         = 24.76
 optimisation between [QCUT,QGAM] = [ 10.15, 20.30] = [ 28.85,115.39] Ry 
 Optimized for a Real-space Cutoff    1.38 Angstroem

   l    n(q)    QCUT    max X(q) W(low)/X(q) W(high)/X(q)  e(spline) 
   0      8    10.150    20.381    0.22E-03    0.32E-03    0.29E-06
   0      8    10.150    15.268    0.23E-03    0.35E-03    0.30E-06
   1      8    10.150     5.964    0.46E-03    0.53E-03    0.21E-06
   1      8    10.150     5.382    0.38E-03    0.45E-03    0.19E-06
  PAW_PBE Zn 06Sep2000                  :
 energy of atom  1       EATOM=-1748.8345
 kinetic energy error for atom=    0.0107 (will be added to EATOM!!)
  PAW_PBE Cu 22Jun2005                  :
 energy of atom  2       EATOM=-1390.9808
 kinetic energy error for atom=    0.0232 (will be added to EATOM!!)
  PAW_PBE O 08Apr2002                   :
 energy of atom  3       EATOM= -432.3788
 kinetic energy error for atom=    0.1156 (will be added to EATOM!!)
 
 
 POSCAR: Zn Cu  O
  positions in cartesian coordinates
  No initial velocities read in
 exchange correlation table for  LEXCH =        8
   RHO(1)=    0.500       N(1)  =     2000
   RHO(2)=  100.500       N(2)  =     4000

 VTST: version 4.2, (08/11/21)

 CHAIN: initializing optimizer
 
 OPT: Using VASP Conjugate-Gradient optimizer
 CHAIN: Read ICHAIN            0
 
 POSCAR: Zn Cu  O
  positions in cartesian coordinates
  No initial velocities read in
 


--------------------------------------------------------------------------------------------------------


 ion  position               nearest neighbor table
   1  0.067  0.083  0.053- 157 2.59  25 2.59  17 2.59 141 2.59  21 2.59   5 2.59   2 2.93  18 2.93
                            22 2.93
   2  0.133  0.042  0.160-  26 2.59 158 2.59 142 2.59  22 2.59   6 2.59  18 2.59   3 2.76   7 2.76
                           143 2.79   1 2.93   5 2.93 141 2.93
   3  0.067  0.083  0.259-  27 2.56  23 2.57 159 2.57 143 2.57   7 2.59  19 2.59   2 2.76  18 2.76
                            22 2.76  20 2.89   4 2.89
   4  0.145  0.056  0.366-   8 2.59  20 2.59 144 2.62 160 2.62  28 2.65  24 2.66   7 2.89   3 2.89
                           143 3.04
   5  0.267  0.083  0.053-  29 2.59 141 2.59  25 2.59 145 2.59   1 2.59   9 2.59   6 2.93   2 2.93
                            26 2.93
   6  0.333  0.042  0.160-  30 2.59 142 2.59  10 2.59  26 2.59 146 2.59   2 2.59   7 2.76  11 2.76
                           147 2.79   5 2.93   9 2.93 145 2.93
   7  0.267  0.083  0.259-  31 2.56  27 2.57 143 2.57 147 2.58   3 2.59  11 2.59   6 2.76   2 2.76
                            26 2.77   8 2.88   4 2.89
   8  0.345  0.056  0.366-   4 2.59  12 2.59 144 2.62 148 2.63  28 2.65  32 2.66   7 2.88  11 2.88
                           147 3.03
   9  0.467  0.083  0.053-  33 2.59 145 2.59  13 2.59  29 2.59 149 2.59   5 2.59  10 2.93   6 2.93
                            30 2.93
  10  0.533  0.042  0.160- 146 2.59  34 2.59   6 2.59  30 2.59 150 2.59  14 2.59  11 2.76  15 2.76
                           151 2.79   9 2.93  13 2.93 149 2.93
  11  0.467  0.083  0.259-  31 2.56  35 2.57 147 2.57 151 2.58  15 2.59   7 2.59  10 2.76   6 2.76
                            30 2.77   8 2.88  12 2.90
  12  0.545  0.056  0.367-   8 2.59  16 2.59 148 2.63 152 2.63  32 2.66  36 2.66  11 2.90  15 2.90

  13  0.667  0.083  0.053- 149 2.59  37 2.59   9 2.59  33 2.59 153 2.59  17 2.59  14 2.93  10 2.93
                            34 2.93
  14  0.733  0.042  0.160-  38 2.59 150 2.59  18 2.59  34 2.59 154 2.59  10 2.59  15 2.76  19 2.76
                           155 2.81  13 2.93  17 2.93 153 2.93
  15  0.667  0.083  0.259-  35 2.56  39 2.56 155 2.58 151 2.58  11 2.59  19 2.59  14 2.76  34 2.76
                            10 2.76  16 2.90  12 2.90
  16  0.745  0.056  0.367-  20 2.59  12 2.59 156 2.63 152 2.64  36 2.65  40 2.66  19 2.90  15 2.90
                           155 3.02
  17  0.867  0.083  0.053-  21 2.59 153 2.59   1 2.59  37 2.59 157 2.59  13 2.59  18 2.93  14 2.93
                            38 2.93
  18  0.933  0.042  0.160- 154 2.59  22 2.59  14 2.59  38 2.59 158 2.59   2 2.59   3 2.76  19 2.76
                           159 2.80  17 2.93   1 2.93 157 2.93
  19  0.867  0.083  0.259-  23 2.56  39 2.57 155 2.58 159 2.58   3 2.59  15 2.59  18 2.76  38 2.76
                            14 2.76  20 2.88  16 2.90
  20  0.945  0.056  0.366-  16 2.59   4 2.59 160 2.62 156 2.63  40 2.65  24 2.66  19 2.88   3 2.89
                           159 3.02
  21  0.067  0.208  0.053-  17 2.59  45 2.59  37 2.59  41 2.59   1 2.59  25 2.59  22 2.93  38 2.93
                            42 2.93
  22  0.133  0.167  0.160-  18 2.59  46 2.59  42 2.59   2 2.59  26 2.59  38 2.59   3 2.76  21 2.93
                            25 2.93   1 2.93  23 2.95  27 2.95
  23  0.065  0.206  0.269-  43 2.52  47 2.52  19 2.56   3 2.57  27 2.59  39 2.59  40 2.80  24 2.81
                            38 2.95  22 2.95  42 2.98
  24  0.148  0.185  0.373-  40 2.59  28 2.59  44 2.62  48 2.62  20 2.66   4 2.66  27 2.80  23 2.81

  25  0.267  0.208  0.053-   1 2.59  49 2.59  45 2.59   5 2.59  21 2.59  29 2.59  26 2.93  22 2.93
                            46 2.93
  26  0.333  0.167  0.160-  50 2.59   2 2.59  30 2.59  46 2.59   6 2.59  22 2.59   7 2.77  25 2.93
                            29 2.93   5 2.93  31 2.95  27 2.96
  27  0.264  0.206  0.269-  47 2.51  51 2.52   3 2.56   7 2.57  23 2.59  31 2.59  24 2.80  28 2.80
                            22 2.95  26 2.96  46 2.99
  28  0.348  0.185  0.373-  32 2.59  24 2.59  48 2.62  52 2.63   8 2.65   4 2.65  27 2.80  31 2.80

  29  0.467  0.208  0.053-  53 2.59   5 2.59  33 2.59  49 2.59   9 2.59  25 2.59  30 2.93  26 2.93
                            50 2.93
  30  0.533  0.167  0.160-   6 2.59  54 2.59  26 2.59  50 2.59  10 2.59  34 2.59  11 2.77  29 2.93
                            33 2.93   9 2.93  31 2.95  35 2.97
  31  0.465  0.205  0.269-  51 2.51  55 2.52   7 2.56  11 2.56  35 2.59  27 2.59  28 2.80  32 2.81
                            30 2.95  26 2.95  50 2.99
  32  0.548  0.185  0.373-  28 2.59  36 2.59  56 2.62  52 2.62  12 2.66   8 2.66  35 2.78  31 2.81

  33  0.667  0.208  0.053-   9 2.59  57 2.59  29 2.59  53 2.59  13 2.59  37 2.59  34 2.93  30 2.93
                            54 2.93
  34  0.733  0.167  0.160-  58 2.59  10 2.59  38 2.59  54 2.59  14 2.59  30 2.59  15 2.76  33 2.93
                            37 2.93  13 2.93  39 2.96  35 2.97
  35  0.665  0.206  0.270-  55 2.52  59 2.52  15 2.56  11 2.57  39 2.59  31 2.59  32 2.78  36 2.79
                            34 2.97  30 2.97  54 3.00
  36  0.748  0.185  0.373-  40 2.59  32 2.59  56 2.62  60 2.62  16 2.65  12 2.66  35 2.79  39 2.79

  37  0.867  0.208  0.053-  41 2.59  13 2.59  21 2.59  17 2.59  57 2.59  33 2.59  38 2.93  34 2.93
                            58 2.93
  38  0.933  0.167  0.160-  14 2.59  42 2.59  34 2.59  18 2.59  58 2.59  22 2.59  19 2.76  37 2.93
                            21 2.93  17 2.93  23 2.95  39 2.96
  39  0.865  0.206  0.269-  59 2.52  43 2.52  15 2.56  19 2.57  35 2.59  23 2.59  36 2.79  40 2.79
                            34 2.96  38 2.96  58 2.99
  40  0.948  0.185  0.373-  24 2.59  36 2.59  60 2.62  44 2.62  20 2.65  16 2.66  39 2.79  23 2.80

  41  0.067  0.333  0.053-  37 2.59  65 2.59  57 2.59  61 2.59  21 2.59  45 2.59  42 2.93  58 2.93
                            62 2.93
  42  0.133  0.292  0.160-  38 2.59  66 2.59  62 2.59  22 2.59  46 2.59  58 2.59  47 2.69  43 2.69
                            41 2.93  45 2.93  21 2.93  23 2.98
  43  0.061  0.326  0.257-  23 2.52  39 2.52  64 2.54  59 2.59  47 2.59  63 2.63  67 2.64  42 2.69
                            58 2.70  62 2.81
  44  0.136  0.295  0.420- 174 2.53 175 2.54  60 2.58  48 2.59  24 2.62  40 2.62 173 2.73  68 2.82
                            64 2.82
  45  0.267  0.333  0.053-  21 2.59  69 2.59  65 2.59  25 2.59  41 2.59  49 2.59  46 2.93  42 2.93
                            66 2.93
  46  0.333  0.292  0.160-  70 2.59  22 2.59  50 2.59  66 2.59  26 2.59  42 2.59  47 2.68  51 2.69
                            45 2.93  49 2.93  25 2.93  27 2.99
  47  0.261  0.325  0.257-  27 2.51  23 2.52  68 2.55  51 2.59  43 2.59  71 2.64  67 2.64  46 2.68
                            42 2.69  66 2.81
  48  0.337  0.295  0.420- 175 2.54 190 2.54  52 2.59  44 2.59  24 2.62  28 2.62 177 2.70  72 2.79
                            68 2.81
  49  0.467  0.333  0.053-  73 2.59  25 2.59  53 2.59  69 2.59  29 2.59  45 2.59  50 2.93  46 2.93
                            70 2.93
  50  0.533  0.292  0.160-  26 2.59  74 2.59  46 2.59  70 2.59  30 2.59  54 2.59  55 2.67  51 2.68
                            49 2.93  53 2.93  29 2.93  31 2.99
  51  0.461  0.325  0.257-  31 2.51  27 2.52  72 2.54  55 2.58  47 2.59  75 2.64  71 2.64  50 2.68
                            46 2.69  70 2.81
  52  0.536  0.294  0.422- 190 2.52 191 2.52  48 2.59  56 2.59  32 2.62  28 2.63 189 2.71  76 2.83
                            72 2.83
  53  0.667  0.333  0.053-  29 2.59  77 2.59  49 2.59  73 2.59  33 2.59  57 2.59  54 2.93  50 2.93
                            74 2.93
  54  0.733  0.292  0.160-  78 2.59  30 2.59  58 2.59  74 2.59  34 2.59  50 2.59  55 2.67  59 2.68
                            53 2.93  57 2.93  33 2.93  35 3.00
  55  0.660  0.325  0.256-  35 2.52  31 2.52  76 2.54  51 2.58  59 2.59  75 2.63  79 2.64  54 2.67
                            50 2.67  74 2.79
  56  0.737  0.295  0.420- 200 2.53 191 2.54  60 2.59  52 2.59  36 2.62  32 2.62 193 2.69  76 2.79
                            80 2.81
  57  0.867  0.333  0.053-  61 2.59  33 2.59  41 2.59  37 2.59  77 2.59  53 2.59  58 2.93  54 2.93
                            78 2.93
  58  0.933  0.292  0.160-  34 2.59  62 2.59  54 2.59  38 2.59  78 2.59  42 2.59  59 2.67  43 2.70
                            57 2.93  41 2.93  37 2.93  39 2.99
  59  0.861  0.325  0.256-  39 2.52  35 2.52  80 2.55  55 2.59  43 2.59  79 2.63  63 2.64  58 2.67
                            54 2.68  78 2.79
  60  0.937  0.295  0.421- 200 2.53 174 2.53  44 2.58  56 2.59  40 2.62  36 2.62 162 2.72  80 2.82
                            64 2.84
  61  0.067  0.458  0.053-  57 2.59  85 2.59  77 2.59  81 2.59  41 2.59  65 2.59  62 2.93  78 2.93
                            82 2.93
  62  0.133  0.417  0.160-  58 2.59  86 2.59  82 2.59  42 2.59  66 2.59  78 2.59  63 2.69  67 2.70
                            43 2.81  61 2.93  65 2.93  41 2.93
  63  0.064  0.453  0.257-  67 2.59  79 2.59  43 2.63  84 2.64  59 2.64  87 2.67  83 2.68  62 2.69
                            78 2.70  64 2.72  80 2.72  82 2.77
  64  0.120  0.399  0.349- 162 2.48 173 2.49  43 2.54  68 2.58  80 2.58  63 2.72  67 2.72  88 2.78
                            84 2.78  44 2.82  60 2.84
  65  0.267  0.458  0.053-  41 2.59  89 2.59  85 2.59  45 2.59  61 2.59  69 2.59  66 2.93  62 2.93
                            86 2.93
  66  0.333  0.417  0.160-  90 2.59  42 2.59  70 2.59  86 2.59  46 2.59  62 2.59  71 2.69  67 2.70
                            47 2.81  65 2.93  69 2.93  45 2.93
  67  0.264  0.454  0.257-  63 2.59  71 2.59  43 2.64  88 2.64  47 2.64  91 2.67  87 2.68  66 2.70
                            62 2.70  68 2.72  64 2.72  86 2.77
  68  0.319  0.399  0.349- 177 2.48 173 2.49  47 2.55  64 2.58  72 2.59  67 2.72  71 2.73  92 2.76
                            88 2.79  48 2.81  44 2.82
  69  0.467  0.458  0.053-  93 2.59  45 2.59  73 2.59  89 2.59  49 2.59  65 2.59  70 2.93  66 2.93
                            90 2.93
  70  0.533  0.417  0.160-  46 2.59  94 2.59  66 2.59  90 2.59  50 2.59  74 2.59  71 2.68  75 2.69
                            51 2.81  69 2.93  73 2.93  49 2.93
  71  0.463  0.453  0.256-  75 2.59  67 2.59  92 2.61  47 2.64  51 2.64  95 2.68  70 2.68  91 2.69
                            66 2.69  72 2.73  68 2.73  90 2.77
  72  0.518  0.397  0.349- 189 2.48 177 2.49  51 2.54  68 2.59  76 2.60  71 2.73  75 2.74  96 2.79
                            92 2.79  48 2.79  52 2.83
  73  0.667  0.458  0.053-  49 2.59  97 2.59  69 2.59  93 2.59  53 2.59  77 2.59  74 2.93  70 2.93
                            94 2.93
  74  0.733  0.417  0.160-  98 2.59  50 2.59  78 2.59  94 2.59  54 2.59  70 2.59  75 2.68  79 2.69
                            55 2.79  73 2.93  77 2.93  53 2.93
  75  0.663  0.453  0.256-  71 2.59  79 2.59  96 2.60  55 2.63  51 2.64  74 2.68  99 2.68  70 2.69
                            95 2.70  76 2.74  72 2.74  94 2.77
  76  0.718  0.397  0.349- 189 2.47 193 2.49  55 2.54  80 2.59  72 2.60  79 2.73  75 2.74 100 2.79
                            56 2.79  96 2.80  52 2.83
  77  0.867  0.458  0.053-  81 2.59  53 2.59  61 2.59  57 2.59  97 2.59  73 2.59  78 2.93  74 2.93
                            98 2.93
  78  0.933  0.417  0.160-  54 2.59  82 2.59  74 2.59  58 2.59  98 2.59  62 2.59  79 2.69  63 2.70
                            59 2.79  77 2.93  61 2.93  57 2.93
  79  0.863  0.453  0.256-  63 2.59  75 2.59 100 2.61  59 2.63  55 2.64  78 2.69  83 2.69  99 2.69
                            74 2.69  80 2.73  76 2.73  98 2.77
  80  0.919  0.398  0.349- 193 2.48 162 2.50  59 2.55  64 2.58  76 2.59  63 2.72  79 2.73 100 2.79
                            84 2.80  56 2.81  60 2.82
  81  0.067  0.583  0.053-  77 2.59 105 2.59  97 2.59 101 2.59  61 2.59  85 2.59  82 2.93  98 2.93
                           102 2.93
  82  0.133  0.542  0.160-  78 2.59 106 2.59 102 2.59  62 2.59  86 2.59  98 2.59  83 2.74  87 2.74
                            63 2.77  81 2.93  85 2.93  61 2.93
  83  0.068  0.584  0.257-  87 2.59  99 2.59 103 2.61 107 2.61 100 2.65  84 2.66  63 2.68  79 2.69
                           102 2.73  82 2.74  98 2.74 104 3.00
  84  0.129  0.536  0.349- 163 2.46 162 2.54 100 2.59  88 2.59  63 2.64  83 2.66  87 2.67 104 2.70
                           108 2.72  64 2.78  80 2.80
  85  0.267  0.583  0.053-  61 2.59 109 2.59 105 2.59  65 2.59  81 2.59  89 2.59  86 2.93  82 2.93
                           106 2.93
  86  0.333  0.542  0.160- 110 2.59  62 2.59  90 2.59 106 2.59  66 2.59  82 2.59  91 2.73  87 2.74
                            67 2.77  85 2.93  89 2.93  65 2.93
  87  0.267  0.584  0.257-  91 2.58  83 2.59 107 2.61 111 2.61  88 2.67  84 2.67  63 2.67  67 2.68
                           106 2.73  86 2.74  82 2.74 108 3.01
  88  0.329  0.536  0.349- 167 2.46 173 2.53  92 2.59  84 2.59  67 2.64  91 2.67  87 2.67 112 2.70
                           108 2.71  64 2.78  68 2.79
  89  0.467  0.583  0.053- 113 2.59  65 2.59  93 2.59 109 2.59  69 2.59  85 2.59  90 2.93  86 2.93
                           110 2.93
  90  0.533  0.542  0.160-  66 2.59 114 2.59  86 2.59 110 2.59  70 2.59  94 2.59  95 2.73  91 2.74
                            71 2.77  89 2.93  93 2.93  69 2.93
  91  0.467  0.584  0.257-  87 2.58  95 2.59 111 2.61 115 2.61  92 2.65  88 2.67  67 2.67  71 2.69
                           110 2.72  86 2.73  90 2.74 112 3.00
  92  0.528  0.535  0.348- 178 2.43 177 2.55  88 2.59  96 2.59  71 2.61  91 2.65  95 2.65 116 2.72
                           112 2.73  68 2.76  72 2.79
  93  0.667  0.583  0.053-  69 2.59 117 2.59  89 2.59 113 2.59  73 2.59  97 2.59  94 2.93  90 2.93
                           114 2.93
  94  0.733  0.542  0.160- 118 2.59  70 2.59  98 2.59 114 2.59  74 2.59  90 2.59  99 2.73  95 2.73
                            75 2.77  93 2.93  97 2.93  73 2.93
  95  0.667  0.584  0.257-  91 2.59  99 2.60 115 2.61 119 2.61  96 2.65  92 2.65  71 2.68  75 2.70
                           114 2.72  90 2.73  94 2.73 116 2.98
  96  0.728  0.535  0.347- 183 2.43 189 2.54 100 2.59  92 2.59  75 2.60  99 2.64  95 2.65 116 2.72
                           120 2.73  72 2.79  76 2.80
  97  0.867  0.583  0.053- 101 2.59  73 2.59  81 2.59  77 2.59 117 2.59  93 2.59  98 2.93  94 2.93
                           118 2.93
  98  0.933  0.542  0.160-  74 2.59 102 2.59  94 2.59  78 2.59 118 2.59  82 2.59  99 2.73  83 2.74
                            79 2.77  97 2.93  81 2.93  77 2.93
  99  0.867  0.584  0.257-  83 2.59  95 2.60 119 2.61 103 2.61  96 2.64 100 2.65  75 2.68  79 2.69
                           118 2.72  98 2.73  94 2.73 120 2.98
 100  0.927  0.535  0.348- 194 2.43 193 2.54  96 2.59  84 2.59  79 2.61  99 2.65  83 2.65 120 2.72
                           104 2.75  80 2.79  76 2.79
 101  0.067  0.708  0.053-  97 2.59 125 2.59 117 2.59 121 2.59  81 2.59 105 2.59 102 2.93 118 2.93
                           122 2.93
 102  0.133  0.667  0.160-  98 2.59 126 2.59 122 2.59  82 2.59 106 2.59 118 2.59  83 2.73 101 2.93
                           105 2.93  81 2.93 103 2.94 107 2.94
 103  0.068  0.710  0.267- 123 2.59 127 2.59 107 2.59 119 2.59  83 2.61  99 2.61 120 2.79 104 2.82
                           124 2.87 122 2.92 102 2.94 118 2.94
 104  0.134  0.666  0.368- 108 2.58 120 2.59 188 2.59 161 2.63 194 2.65 163 2.70  84 2.70 128 2.74
                           100 2.75 124 2.75 107 2.81 103 2.82  83 3.00
 105  0.267  0.708  0.053-  81 2.59 129 2.59 125 2.59  85 2.59 101 2.59 109 2.59 106 2.93 102 2.93
                           126 2.93
 106  0.333  0.667  0.160- 130 2.59  82 2.59 110 2.59 126 2.59  86 2.59 102 2.59  87 2.73 105 2.93
                           109 2.93  85 2.93 107 2.94 111 2.95
 107  0.268  0.710  0.267- 127 2.58 131 2.58 111 2.59 103 2.59  87 2.61  83 2.61 104 2.81 108 2.82
                           128 2.90 126 2.92 106 2.94 102 2.94
 108  0.334  0.667  0.368- 104 2.58 112 2.58 161 2.61 168 2.62 163 2.67 167 2.67  88 2.71  84 2.72
                           132 2.74 128 2.74 111 2.81 107 2.82  87 3.01
 109  0.467  0.708  0.053- 133 2.59  85 2.59 113 2.59 129 2.59  89 2.59 105 2.59 110 2.93 106 2.93
                           130 2.93
 110  0.533  0.667  0.160-  86 2.59 134 2.59 106 2.59 130 2.59  90 2.59 114 2.59  91 2.72 109 2.93
                           113 2.93  89 2.93 115 2.94 111 2.95
 111  0.468  0.710  0.268- 131 2.58 107 2.59 135 2.59 115 2.59  91 2.61  87 2.61 112 2.81 108 2.81
                           132 2.89 130 2.93 106 2.95 110 2.95
 112  0.533  0.666  0.368- 108 2.58 172 2.60 116 2.60 168 2.63 178 2.65 167 2.69  88 2.70  92 2.73
                           132 2.74 136 2.75 111 2.81 115 2.82  91 3.00
 113  0.667  0.708  0.053-  89 2.59 137 2.59 109 2.59 133 2.59  93 2.59 117 2.59 114 2.93 110 2.93
                           134 2.93
 114  0.733  0.667  0.160- 138 2.59  90 2.59 118 2.59 134 2.59  94 2.59 110 2.59  95 2.72 113 2.93
                           117 2.93  93 2.93 119 2.93 115 2.94
 115  0.668  0.710  0.267- 135 2.58 139 2.59 111 2.59 119 2.59  95 2.61  91 2.61 116 2.80 112 2.82
                           136 2.85 134 2.92 110 2.94 114 2.94
 116  0.733  0.666  0.367- 112 2.60 120 2.60 184 2.61 172 2.61 178 2.66 183 2.66  92 2.72  96 2.72
                           136 2.75 140 2.76 115 2.80 119 2.81  95 2.98
 117  0.867  0.708  0.053- 121 2.59  93 2.59 101 2.59  97 2.59 137 2.59 113 2.59 118 2.93 114 2.93
                           138 2.93
 118  0.933  0.667  0.160-  94 2.59 122 2.59 114 2.59  98 2.59 138 2.59 102 2.59  99 2.72 119 2.93
                           117 2.93 101 2.93  97 2.93 103 2.94
 119  0.868  0.710  0.267- 139 2.58 123 2.59 103 2.59 115 2.59  99 2.61  95 2.61 116 2.81 120 2.81
                           140 2.87 138 2.91 118 2.93 114 2.93
 120  0.934  0.666  0.367- 104 2.59 116 2.60 184 2.60 188 2.62 183 2.66 194 2.67 100 2.72  96 2.73
                           124 2.75 140 2.76 103 2.79 119 2.81  99 2.98
 121  0.067  0.833  0.053- 117 2.59 145 2.59 137 2.59 141 2.59 101 2.59 125 2.59 122 2.93 138 2.93
                           142 2.93
 122  0.133  0.792  0.160- 118 2.59 146 2.59 142 2.59 102 2.59 126 2.59 138 2.59 123 2.83 127 2.83
                           103 2.92 121 2.93 125 2.93 101 2.93
 123  0.068  0.834  0.262- 147 2.58 103 2.59 119 2.59 143 2.59 139 2.59 127 2.59 142 2.82 122 2.83
                           138 2.83 140 2.85 124 2.86 144 2.96
 124  0.141  0.801  0.367- 188 2.48 140 2.59 128 2.59 148 2.62 144 2.62 120 2.75 104 2.75 123 2.86
                           127 2.86 103 2.87
 125  0.267  0.833  0.053- 101 2.59 149 2.59 145 2.59 105 2.59 121 2.59 129 2.59 126 2.93 122 2.93
                           146 2.93
 126  0.333  0.792  0.160- 150 2.59 102 2.59 130 2.59 146 2.59 106 2.59 122 2.59 131 2.83 127 2.83
                           107 2.92 125 2.93 129 2.93 105 2.93
 127  0.268  0.834  0.262- 107 2.58 151 2.58 103 2.59 131 2.59 147 2.59 123 2.59 146 2.82 126 2.83
                           122 2.83 124 2.86 128 2.89 148 2.96
 128  0.341  0.801  0.369- 161 2.49 124 2.59 132 2.59 152 2.62 148 2.62 104 2.74 108 2.74 127 2.89
                           131 2.90 107 2.90
 129  0.467  0.833  0.053- 153 2.59 105 2.59 133 2.59 149 2.59 109 2.59 125 2.59 130 2.93 126 2.93
                           150 2.93
 130  0.533  0.792  0.160- 106 2.59 154 2.59 126 2.59 150 2.59 110 2.59 134 2.59 131 2.82 135 2.83
                           111 2.93 129 2.93 133 2.93 109 2.93
 131  0.468  0.834  0.262- 111 2.58 107 2.58 135 2.59 127 2.59 151 2.59 155 2.59 150 2.81 130 2.82
                           126 2.83 132 2.89 128 2.90 152 2.96
 132  0.541  0.801  0.368- 168 2.50 128 2.59 136 2.59 152 2.62 156 2.62 108 2.74 112 2.74 111 2.89
                           131 2.89 135 2.89
 133  0.667  0.833  0.053- 109 2.59 157 2.59 129 2.59 153 2.59 113 2.59 137 2.59 134 2.93 130 2.93
                           154 2.93
 134  0.733  0.792  0.160- 158 2.59 110 2.59 138 2.59 154 2.59 114 2.59 130 2.59 135 2.83 139 2.83
                           115 2.92 133 2.93 137 2.93 113 2.93
 135  0.667  0.834  0.262- 115 2.58 155 2.59 131 2.59 111 2.59 159 2.59 139 2.59 154 2.81 130 2.83
                           134 2.83 136 2.84 132 2.89 156 2.96
 136  0.741  0.801  0.366- 172 2.49 132 2.59 140 2.59 156 2.62 160 2.63 112 2.75 116 2.75 139 2.84
                           135 2.84 115 2.85
 137  0.867  0.833  0.053- 141 2.59 113 2.59 121 2.59 117 2.59 157 2.59 133 2.59 138 2.93 134 2.93
                           158 2.93
 138  0.933  0.792  0.160- 114 2.59 142 2.59 134 2.59 118 2.59 158 2.59 122 2.59 139 2.82 123 2.83
                           119 2.91 137 2.93 121 2.93 117 2.93
 139  0.868  0.834  0.262- 119 2.58 143 2.59 159 2.59 115 2.59 123 2.59 135 2.59 158 2.81 138 2.82
                           134 2.83 136 2.84 140 2.85 160 2.96
 140  0.942  0.802  0.366- 184 2.48 124 2.59 136 2.59 160 2.62 144 2.62 116 2.76 120 2.76 123 2.85
                           139 2.85 119 2.87
 141  0.067  0.958  0.053- 137 2.59   5 2.59 157 2.59   1 2.59 121 2.59 145 2.59 142 2.93 158 2.93
                             2 2.93
 142  0.133  0.917  0.160-   6 2.59 138 2.59 122 2.59   2 2.59 146 2.59 158 2.59 143 2.80 147 2.80
                           123 2.82 141 2.93 145 2.93 121 2.93
 143  0.068  0.959  0.260-   7 2.57   3 2.57 139 2.59 123 2.59 147 2.59 159 2.59   2 2.79 142 2.80
                           158 2.80 160 2.84 144 2.84   4 3.04
 144  0.143  0.929  0.365- 148 2.59 160 2.59 140 2.62   8 2.62 124 2.62   4 2.62 147 2.83 143 2.84
                           123 2.96
 145  0.267  0.958  0.053-   9 2.59 121 2.59   5 2.59 125 2.59 141 2.59 149 2.59 146 2.93 142 2.93
                             6 2.93
 146  0.333  0.917  0.160-  10 2.59 122 2.59 150 2.59 126 2.59   6 2.59 142 2.59 147 2.80 151 2.80
                           127 2.82 145 2.93 149 2.93 125 2.93
 147  0.267  0.959  0.261-  11 2.57   7 2.58 123 2.58 127 2.59 151 2.59 143 2.59   6 2.79 146 2.80
                           142 2.80 144 2.83 148 2.83   8 3.03
 148  0.343  0.928  0.365- 152 2.58 144 2.59 128 2.62 124 2.62  12 2.63   8 2.63 151 2.83 147 2.83
                           127 2.96
 149  0.467  0.958  0.053-  13 2.59 125 2.59 153 2.59 129 2.59   9 2.59 145 2.59 150 2.93 146 2.93
                            10 2.93
 150  0.533  0.917  0.160- 126 2.59  14 2.59 146 2.59 130 2.59  10 2.59 154 2.59 151 2.80 131 2.81
                           155 2.82 149 2.93 153 2.93 129 2.93
 151  0.467  0.959  0.261-  11 2.58  15 2.58 127 2.58 131 2.59 155 2.59 147 2.59  10 2.79 150 2.80
                           146 2.80 152 2.83 148 2.83
 152  0.542  0.928  0.365- 148 2.58 156 2.59 128 2.62 132 2.62  12 2.63  16 2.64 155 2.82 151 2.83
                           131 2.96
 153  0.667  0.958  0.053- 129 2.59  17 2.59 149 2.59 133 2.59  13 2.59 157 2.59 154 2.93 150 2.93
                            14 2.93
 154  0.733  0.917  0.160-  18 2.59 130 2.59 158 2.59 134 2.59  14 2.59 150 2.59 135 2.81 159 2.81
                           155 2.82 153 2.93 157 2.93 133 2.93
 155  0.668  0.959  0.261-  15 2.58  19 2.58 135 2.59 151 2.59 159 2.59 131 2.59  14 2.81 152 2.82
                           156 2.82 154 2.82 150 2.82  16 3.02
 156  0.743  0.928  0.365- 160 2.59 152 2.59 136 2.62 132 2.62  16 2.63  20 2.63 155 2.82 159 2.83
                           135 2.96
 157  0.867  0.958  0.053-   1 2.59 133 2.59 141 2.59 137 2.59  17 2.59 153 2.59 158 2.93 154 2.93
                            18 2.93
 158  0.933  0.917  0.160- 134 2.59   2 2.59 154 2.59 138 2.59  18 2.59 142 2.59 143 2.80 159 2.81
                           139 2.81 157 2.93 141 2.93 137 2.93
 159  0.868  0.959  0.261-   3 2.57  19 2.58 139 2.59 135 2.59 143 2.59 155 2.59  18 2.80 158 2.81
                           154 2.81 160 2.82 156 2.83  20 3.02
 160  0.943  0.929  0.365- 156 2.59 144 2.59 140 2.62  20 2.62   4 2.62 136 2.63 159 2.82 143 2.84
                           139 2.96
 161  0.279  0.721  0.455- 163 2.44 128 2.49 199 2.50 169 2.51 168 2.56 188 2.59 108 2.61 104 2.63

 162  0.058  0.446  0.432-  64 2.48  80 2.50 196 2.50 164 2.51 163 2.53  84 2.54 174 2.56 200 2.56
                           173 2.58 193 2.58  60 2.72
 163  0.171  0.586  0.446- 161 2.44  84 2.46 164 2.49 196 2.51 199 2.52 162 2.53 167 2.54 194 2.61
                           169 2.62 108 2.67 104 2.70
 164  0.203  0.503  0.512- 176 2.46 165 2.47 163 2.49 167 2.50 173 2.51 162 2.51 166 2.58 171 2.58
                           174 2.59 196 2.59 179 2.59 169 2.70
 165  0.037  0.421  0.575- 164 2.47 196 2.47 174 2.48 200 2.48 166 2.55 197 2.59 176 2.60
 166  0.139  0.561  0.592- 201 1.87 196 2.46 198 2.51 199 2.53 165 2.55 164 2.58 169 2.61
 167  0.368  0.586  0.447- 168 2.45  88 2.46 164 2.50 179 2.51 170 2.51 173 2.53 163 2.54 178 2.61
                           169 2.62 108 2.67 112 2.69
 168  0.477  0.722  0.455- 167 2.45 132 2.50 170 2.51 169 2.51 161 2.56 172 2.61 108 2.62 112 2.63

 169  0.322  0.652  0.530- 201 1.97 161 2.51 168 2.51 171 2.60 166 2.61 167 2.62 163 2.62 199 2.65
                           170 2.65 164 2.70
 170  0.522  0.646  0.523- 172 2.48 182 2.50 168 2.51 178 2.51 167 2.51 171 2.53 185 2.55 179 2.59
                           169 2.65
 171  0.360  0.562  0.591- 201 1.87 179 2.45 182 2.51 170 2.53 176 2.56 164 2.58 169 2.60
 172  0.679  0.723  0.453- 170 2.48 178 2.48 136 2.49 185 2.51 112 2.60 184 2.60 168 2.61 116 2.61

 173  0.258  0.446  0.432-  64 2.49  68 2.49 179 2.50 164 2.51 167 2.53  88 2.53 175 2.56 174 2.56
                           162 2.58 177 2.59  44 2.73
 174  0.089  0.360  0.499- 165 2.48 176 2.48  60 2.53  44 2.53 162 2.56 173 2.56 164 2.59 175 2.59
                           200 2.59
 175  0.289  0.360  0.498- 176 2.48 181 2.49  48 2.54  44 2.54 177 2.55 173 2.56 190 2.58 179 2.59
                           174 2.59
 176  0.238  0.421  0.575- 164 2.46 179 2.47 174 2.48 175 2.48 171 2.56 181 2.59 165 2.60
 177  0.456  0.445  0.431-  68 2.48  72 2.49 180 2.49 179 2.51 178 2.52  92 2.55 175 2.55 190 2.56
                           173 2.59 189 2.60  48 2.70
 178  0.568  0.585  0.444-  92 2.43 172 2.48 170 2.51 180 2.52 177 2.52 179 2.52 185 2.55 183 2.59
                           167 2.61 112 2.65 116 2.66
 179  0.404  0.503  0.511- 171 2.45 181 2.46 182 2.46 176 2.47 173 2.50 167 2.51 177 2.51 178 2.52
                           175 2.59 170 2.59 164 2.59 180 2.60
 180  0.604  0.502  0.510- 182 2.45 187 2.47 192 2.48 181 2.48 177 2.49 189 2.49 183 2.51 178 2.52
                           195 2.57 190 2.57 179 2.60 185 2.62
 181  0.438  0.422  0.575- 179 2.46 190 2.48 180 2.48 175 2.49 182 2.52 192 2.59 176 2.59
 182  0.554  0.561  0.587- 180 2.45 179 2.46 185 2.50 170 2.50 171 2.51 181 2.52 187 2.54
 183  0.769  0.585  0.443-  96 2.43 184 2.47 180 2.51 195 2.51 189 2.53 185 2.54 186 2.55 194 2.59
                           178 2.59 120 2.66 116 2.66
 184  0.879  0.722  0.453- 183 2.47 140 2.48 185 2.49 186 2.49 188 2.59 172 2.60 120 2.60 116 2.61

 185  0.720  0.647  0.523- 187 2.48 184 2.49 182 2.50 172 2.51 183 2.54 170 2.55 178 2.55 186 2.56
                           180 2.62
 186  0.918  0.647  0.523- 187 2.48 184 2.49 198 2.50 188 2.50 199 2.54 183 2.55 194 2.55 185 2.56
                           195 2.62
 187  0.751  0.563  0.586- 195 2.47 180 2.47 186 2.48 185 2.48 198 2.54 182 2.54 192 2.55
 188  0.079  0.722  0.453- 199 2.48 124 2.48 194 2.49 186 2.50 184 2.59 161 2.59 104 2.59 120 2.62

 189  0.657  0.445  0.430-  76 2.47  72 2.48 195 2.49 180 2.49 183 2.53  96 2.54 191 2.57 190 2.57
                           193 2.59 177 2.60  52 2.71
 190  0.488  0.360  0.499- 181 2.48 192 2.49  52 2.52  48 2.54 177 2.56 180 2.57 189 2.57 175 2.58
                           191 2.59
 191  0.689  0.360  0.499- 197 2.48 192 2.48  52 2.52  56 2.54 193 2.57 195 2.57 189 2.57 200 2.58
                           190 2.59
 192  0.638  0.422  0.575- 195 2.47 180 2.48 191 2.48 190 2.49 187 2.55 181 2.59 197 2.59
 193  0.857  0.445  0.431-  80 2.48  76 2.49 195 2.49 196 2.51 194 2.52 100 2.54 200 2.55 191 2.57
                           162 2.58 189 2.59  56 2.69
 194  0.969  0.584  0.444- 100 2.43 188 2.49 199 2.51 195 2.52 193 2.52 196 2.53 186 2.55 183 2.59
                           163 2.61 104 2.65 120 2.67
 195  0.802  0.502  0.510- 198 2.45 187 2.47 192 2.47 197 2.48 189 2.49 193 2.49 183 2.51 194 2.52
                           191 2.57 180 2.57 196 2.60 186 2.62
 196  0.003  0.503  0.511- 166 2.46 197 2.46 198 2.47 165 2.47 162 2.50 163 2.51 193 2.51 194 2.53
                           200 2.58 199 2.59 164 2.59 195 2.60
 197  0.838  0.421  0.575- 196 2.46 191 2.48 195 2.48 200 2.49 198 2.52 165 2.59 192 2.59
 198  0.946  0.561  0.587- 195 2.45 196 2.47 186 2.50 199 2.50 166 2.51 197 2.52 187 2.54
 199  0.113  0.646  0.523- 188 2.48 161 2.50 198 2.50 194 2.51 163 2.52 166 2.53 186 2.54 196 2.59
                           169 2.65
 200  0.888  0.360  0.498- 165 2.48 197 2.49  60 2.53  56 2.53 193 2.55 162 2.56 196 2.58 191 2.58
                           174 2.59
 201  0.299  0.624  0.611- 166 1.87 171 1.87 169 1.97
 

IMPORTANT INFORMATION: All symmetrisations will be switched off!
NOSYMM: (Re-)initialisation of all symmetry stuff for point group C_1.


----------------------------------------------------------------------------------------

                                     Primitive cell                                     

  volume of cell :    5482.3327

  direct lattice vectors                    reciprocal lattice vectors
    12.947972000 -0.000019020  0.000000082     0.077232237  0.044590204 -0.000000001
   -10.358403951 17.941221073 -0.000000024     0.000000082  0.055737614 -0.000000000
     0.000000142  0.000000063 23.600000000    -0.000000000 -0.000000000  0.042372881

  length of vectors
    12.947972000 20.716755200 23.600000000     0.089180182  0.055737614  0.042372881

  position of ions in fractional coordinates (direct lattice)
     0.066666750  0.083333279  0.053441485
     0.133333246  0.041666719  0.160324456
     0.066794266  0.083029516  0.258627835
     0.144947390  0.055784722  0.366237106
     0.266666750  0.083333279  0.053441485
     0.333333246  0.041666719  0.160324456
     0.266549144  0.082999256  0.258773476
     0.344926909  0.055834454  0.365696370
     0.466666750  0.083333279  0.053441485
     0.533333246  0.041666719  0.160324456
     0.466619813  0.082903175  0.258716179
     0.544758917  0.055676373  0.366797951
     0.666666750  0.083333279  0.053441485
     0.733333246  0.041666719  0.160324456
     0.666791425  0.083257437  0.258764450
     0.744831546  0.055718021  0.366509103
     0.866666750  0.083333279  0.053441485
     0.933333246  0.041666719  0.160324456
     0.866977201  0.083333321  0.258781311
     0.944952231  0.055839138  0.366007345
     0.066666750  0.208333279  0.053441485
     0.133333246  0.166666719  0.160324456
     0.064701243  0.205911495  0.268671358
     0.148013675  0.184756922  0.372960089
     0.266666750  0.208333279  0.053441485
     0.333333246  0.166666719  0.160324456
     0.264362365  0.205696526  0.268904850
     0.348060539  0.184668738  0.372710593
     0.466666750  0.208333279  0.053441485
     0.533333246  0.166666719  0.160324456
     0.464547823  0.205460147  0.268555793
     0.548118115  0.184753532  0.372823078
     0.666666750  0.208333279  0.053441485
     0.733333246  0.166666719  0.160324456
     0.664860497  0.205773355  0.269636833
     0.748386955  0.184760962  0.372849151
     0.866666750  0.208333279  0.053441485
     0.933333246  0.166666719  0.160324456
     0.864731514  0.205931795  0.269139917
     0.948299635  0.184724245  0.372562982
     0.066666750  0.333333279  0.053441485
     0.133333246  0.291666719  0.160324456
     0.060838619  0.325510727  0.257192805
     0.136201789  0.295056919  0.420301872
     0.266666750  0.333333279  0.053441485
     0.333333246  0.291666719  0.160324456
     0.260817597  0.325168637  0.256724099
     0.336672110  0.295427345  0.419803055
     0.466666750  0.333333279  0.053441485
     0.533333246  0.291666719  0.160324456
     0.460508254  0.324757526  0.256565081
     0.535924299  0.294467504  0.421751086
     0.666666750  0.333333279  0.053441485
     0.733333246  0.291666719  0.160324456
     0.660128542  0.324792423  0.255923243
     0.736831586  0.295258299  0.419961157
     0.866666750  0.333333279  0.053441485
     0.933333246  0.291666719  0.160324456
     0.860517262  0.325213401  0.256136444
     0.936568903  0.294626381  0.420763704
     0.066666750  0.458333279  0.053441485
     0.133333246  0.416666719  0.160324456
     0.063648167  0.453467903  0.256714974
     0.119960260  0.399237457  0.349223234
     0.266666750  0.458333279  0.053441485
     0.333333246  0.416666719  0.160324456
     0.263558917  0.453689158  0.256657658
     0.318845488  0.398773025  0.349011633
     0.466666750  0.458333279  0.053441485
     0.533333246  0.416666719  0.160324456
     0.463283623  0.453177652  0.256275510
     0.517784234  0.397173677  0.348981885
     0.666666750  0.458333279  0.053441485
     0.733333246  0.416666719  0.160324456
     0.662864789  0.452828440  0.256159381
     0.717899921  0.396548620  0.348861166
     0.866666750  0.458333279  0.053441485
     0.933333246  0.416666719  0.160324456
     0.862932681  0.452726129  0.256388246
     0.919130882  0.397584340  0.348969019
     0.066666750  0.583333279  0.053441485
     0.133333246  0.541666719  0.160324456
     0.067525983  0.584059248  0.257404220
     0.128912890  0.536251250  0.349125328
     0.266666750  0.583333279  0.053441485
     0.333333246  0.541666719  0.160324456
     0.267464725  0.584207902  0.257320396
     0.329364610  0.536479833  0.349206742
     0.466666750  0.583333279  0.053441485
     0.533333246  0.541666719  0.160324456
     0.467000358  0.584206889  0.257189492
     0.527739589  0.534902126  0.347676668
     0.666666750  0.583333279  0.053441485
     0.733333246  0.541666719  0.160324456
     0.666973544  0.584180939  0.257031172
     0.727665864  0.534701302  0.347211682
     0.866666750  0.583333279  0.053441485
     0.933333246  0.541666719  0.160324456
     0.867389762  0.584069741  0.257095477
     0.927325403  0.534511956  0.347687190
     0.066666750  0.708333279  0.053441485
     0.133333246  0.666666719  0.160324456
     0.068073926  0.709743959  0.267405981
     0.134283449  0.666445739  0.367874421
     0.266666750  0.708333279  0.053441485
     0.333333246  0.666666719  0.160324456
     0.268114435  0.709840154  0.267377045
     0.333734953  0.666692534  0.368332843
     0.466666750  0.708333279  0.053441485
     0.533333246  0.666666719  0.160324456
     0.467813609  0.709884783  0.267678384
     0.532915000  0.666420205  0.368028720
     0.666666750  0.708333279  0.053441485
     0.733333246  0.666666719  0.160324456
     0.667718195  0.709821273  0.267138278
     0.732961063  0.665905212  0.366929420
     0.866666750  0.708333279  0.053441485
     0.933333246  0.666666719  0.160324456
     0.868017856  0.709781740  0.266845664
     0.933746858  0.665990440  0.366782792
     0.066666750  0.833333279  0.053441485
     0.133333246  0.791666719  0.160324456
     0.067767596  0.834285367  0.262028654
     0.141146092  0.801347278  0.366989090
     0.266666750  0.833333279  0.053441485
     0.333333246  0.791666719  0.160324456
     0.267879449  0.834146742  0.261974739
     0.341022634  0.801285697  0.368760478
     0.466666750  0.833333279  0.053441485
     0.533333246  0.791666719  0.160324456
     0.467506336  0.834044892  0.261705456
     0.541036547  0.801262280  0.368380543
     0.666666750  0.833333279  0.053441485
     0.733333246  0.791666719  0.160324456
     0.667461679  0.834361011  0.261654409
     0.741053882  0.801244963  0.365845670
     0.866666750  0.833333279  0.053441485
     0.933333246  0.791666719  0.160324456
     0.867803997  0.834341480  0.261743719
     0.941592046  0.801724688  0.366484610
     0.066666750  0.958333279  0.053441485
     0.133333246  0.916666719  0.160324456
     0.067569766  0.959029914  0.260388656
     0.143327088  0.928638101  0.364916014
     0.266666750  0.958333279  0.053441485
     0.333333246  0.916666719  0.160324456
     0.267489806  0.958955499  0.260575127
     0.343029171  0.928294237  0.364833946
     0.466666750  0.958333279  0.053441485
     0.533333246  0.916666719  0.160324456
     0.467338904  0.958824214  0.260597097
     0.542286748  0.927952691  0.364577588
     0.666666750  0.958333279  0.053441485
     0.733333246  0.916666719  0.160324456
     0.667559861  0.959181979  0.261440897
     0.742528921  0.928012664  0.364861205
     0.866666750  0.958333279  0.053441485
     0.933333246  0.916666719  0.160324456
     0.867625066  0.959115698  0.261050249
     0.943033476  0.928599661  0.364862302
     0.278597503  0.721370528  0.455241338
     0.057702858  0.445825418  0.431663586
     0.171326651  0.585599696  0.446391166
     0.203145596  0.502910373  0.512104259
     0.036882528  0.420575910  0.575189422
     0.139456745  0.560994595  0.591685964
     0.367969713  0.586137674  0.446560990
     0.477036994  0.722096450  0.455314502
     0.322137314  0.651740402  0.529780434
     0.522325736  0.646471396  0.523144037
     0.360475556  0.561791457  0.591445546
     0.678651079  0.722577578  0.452934843
     0.257564422  0.446275231  0.431852686
     0.088505747  0.359820335  0.498608551
     0.288820049  0.360008118  0.498210589
     0.237729911  0.421038075  0.575078040
     0.456482050  0.445215592  0.431272592
     0.568454971  0.584656923  0.443589986
     0.403506073  0.503125564  0.511490040
     0.603582554  0.502273343  0.509687677
     0.438265615  0.421685268  0.574868566
     0.554024971  0.561426009  0.586887584
     0.768735009  0.584594820  0.443125228
     0.879032590  0.721984136  0.452529185
     0.720270316  0.647490621  0.523073387
     0.917973531  0.647205942  0.523173493
     0.751343487  0.562840027  0.586254719
     0.079043094  0.722189942  0.453252973
     0.657003149  0.444859182  0.430351309
     0.488237187  0.359726414  0.498661845
     0.688540885  0.359611935  0.498823324
     0.638114454  0.421655336  0.575223988
     0.857244975  0.444738331  0.431105755
     0.968622046  0.584275618  0.443502021
     0.801669549  0.501993327  0.509717259
     0.002842705  0.502513145  0.511384310
     0.837803858  0.421423043  0.575180178
     0.945842886  0.560894521  0.587034786
     0.113321308  0.645747274  0.523137479
     0.888070167  0.359691904  0.498351303
     0.299353799  0.623765428  0.610556652

  ion indices of the primitive-cell ions
   primitive index   ion index
                 1           1
                 2           2
                 3           3
                 4           4
                 5           5
                 6           6
                 7           7
                 8           8
                 9           9
                10          10
                11          11
                12          12
                13          13
                14          14
                15          15
                16          16
                17          17
                18          18
                19          19
                20          20
                21          21
                22          22
                23          23
                24          24
                25          25
                26          26
                27          27
                28          28
                29          29
                30          30
                31          31
                32          32
                33          33
                34          34
                35          35
                36          36
                37          37
                38          38
                39          39
                40          40
                41          41
                42          42
                43          43
                44          44
                45          45
                46          46
                47          47
                48          48
                49          49
                50          50
                51          51
                52          52
                53          53
                54          54
                55          55
                56          56
                57          57
                58          58
                59          59
                60          60
                61          61
                62          62
                63          63
                64          64
                65          65
                66          66
                67          67
                68          68
                69          69
                70          70
                71          71
                72          72
                73          73
                74          74
                75          75
                76          76
                77          77
                78          78
                79          79
                80          80
                81          81
                82          82
                83          83
                84          84
                85          85
                86          86
                87          87
                88          88
                89          89
                90          90
                91          91
                92          92
                93          93
                94          94
                95          95
                96          96
                97          97
                98          98
                99          99
               100         100
               101         101
               102         102
               103         103
               104         104
               105         105
               106         106
               107         107
               108         108
               109         109
               110         110
               111         111
               112         112
               113         113
               114         114
               115         115
               116         116
               117         117
               118         118
               119         119
               120         120
               121         121
               122         122
               123         123
               124         124
               125         125
               126         126
               127         127
               128         128
               129         129
               130         130
               131         131
               132         132
               133         133
               134         134
               135         135
               136         136
               137         137
               138         138
               139         139
               140         140
               141         141
               142         142
               143         143
               144         144
               145         145
               146         146
               147         147
               148         148
               149         149
               150         150
               151         151
               152         152
               153         153
               154         154
               155         155
               156         156
               157         157
               158         158
               159         159
               160         160
               161         161
               162         162
               163         163
               164         164
               165         165
               166         166
               167         167
               168         168
               169         169
               170         170
               171         171
               172         172
               173         173
               174         174
               175         175
               176         176
               177         177
               178         178
               179         179
               180         180
               181         181
               182         182
               183         183
               184         184
               185         185
               186         186
               187         187
               188         188
               189         189
               190         190
               191         191
               192         192
               193         193
               194         194
               195         195
               196         196
               197         197
               198         198
               199         199
               200         200
               201         201

----------------------------------------------------------------------------------------

 
 
 KPOINTS: KPOINTS created by Atomic Simulation Env

Automatic generation of k-mesh.
 Grid dimensions read from file:
 generate k-points for:    2    1    1

 Generating k-lattice:

  Cartesian coordinates                     Fractional coordinates (reciprocal lattice)
     0.038616119  0.022295102 -0.000000000     0.500000000 -0.000000000 -0.000000000
     0.000000082  0.055737614 -0.000000000    -0.000000000  1.000000000  0.000000000
    -0.000000000 -0.000000000  0.042372881     0.000000000  0.000000000  1.000000000

  Length of vectors
     0.044590091  0.055737614  0.042372881

  Shift w.r.t. Gamma in fractional coordinates (k-lattice)
     0.000000000  0.000000000  0.000000000

 
 Subroutine IBZKPT returns following result:
 ===========================================
 
 Found      2 irreducible k-points:
 
 Following reciprocal coordinates:
            Coordinates               Weight
  0.000000  0.000000  0.000000      1.000000
  0.500000 -0.000000  0.000000      1.000000
 
 Following cartesian coordinates:
            Coordinates               Weight
  0.000000  0.000000  0.000000      1.000000
  0.038616  0.022295 -0.000000      1.000000
 


--------------------------------------------------------------------------------------------------------




 Dimension of arrays:
   k-points           NKPTS =      2   k-points in BZ     NKDIM =      2   number of bands    NBANDS=   1520
   number of dos      NEDOS =    301   number of ions     NIONS =    201
   non local maximal  LDIM  =      6   non local SUM 2l+1 LMDIM =     18
   total plane-waves  NPLWV = 829440
   max r-space proj   IRMAX =   2427   max aug-charges    IRDMAX=   4708
   dimension x,y,z NGX =    64 NGY =  108 NGZ =  120
   dimension x,y,z NGXF=   128 NGYF=  216 NGZF=  240
   support grid    NGXF=   128 NGYF=  216 NGZF=  240
   ions per type =             160  40   1
   NGX,Y,Z   is equivalent  to a cutoff of   8.22,  8.67,  8.45 a.u.
   NGXF,Y,Z  is equivalent  to a cutoff of  16.43, 17.33, 16.91 a.u.

 SYSTEM =  unknown system                          
 POSCAR =  Zn Cu  O                                

 Startparameter for this run:
   NWRITE =      2    write-flag & timer
   PREC   = normal    normal or accurate (medium, high low for compatibility)
   ISTART =      1    job   : 0-new  1-cont  2-samecut
   ICHARG =      1    charge: 1-file 2-atom 10-const
   ISPIN  =      2    spin polarized calculation?
   LNONCOLLINEAR =      F non collinear calculations
   LSORBIT =      F    spin-orbit coupling
   INIWAV =      1    electr: 0-lowe 1-rand  2-diag
   LASPH  =      F    aspherical Exc in radial PAW
 Electronic Relaxation 1
   ENCUT  =  400.0 eV  29.40 Ry    5.42 a.u.  21.11 33.78 38.49*2*pi/ulx,y,z
   ENINI  =  400.0     initial cutoff
   ENAUG  =  605.4 eV  augmentation charge cutoff
   NELM   =     90;   NELMIN=  4; NELMDL=  0     # of ELM steps 
   EDIFF  = 0.1E-04   stopping-criterion for ELM
   LREAL  =      T    real-space projection
   NLSPLINE    = F    spline interpolate recip. space projectors
   LCOMPAT=      F    compatible to vasp.4.4
   GGA_COMPAT  = T    GGA compatible to vasp.4.4-vasp.4.6
   LMAXPAW     = -100 max onsite density
   LMAXMIX     =    2 max onsite mixed and CHGCAR
   VOSKOWN=      0    Vosko Wilk Nusair interpolation
   ROPT   =   -0.00050  -0.00050  -0.00050
 Ionic relaxation
   EDIFFG = -.2E-01   stopping-criterion for IOM
   NSW    =    500    number of steps for IOM
   NBLOCK =      1;   KBLOCK =    500    inner block; outer block 
   IBRION =      2    ionic relax: 0-MD 1-quasi-New 2-CG
   NFREE  =      1    steps in history (QN), initial steepest desc. (CG)
   ISIF   =      2    stress and relaxation
   IWAVPR =     11    prediction:  0-non 1-charg 2-wave 3-comb
   ISYM   =      0    0-nonsym 1-usesym 2-fastsym
   LCORR  =      T    Harris-Foulkes like correction to forces

   POTIM  = 0.5000    time-step for ionic-motion
   TEIN   =    0.0    initial temperature
   TEBEG  =    0.0;   TEEND  =   0.0 temperature during run
   SMASS  =  -3.00    Nose mass-parameter (am)
   estimated Nose-frequenzy (Omega)   =  0.10E-29 period in steps = 0.13E+47 mass=  -0.383E-26a.u.
   SCALEE = 1.0000    scale energy and forces
   NPACO  =    256;   APACO  = 10.0  distance and # of slots for P.C.
   PSTRESS=    0.0 pullay stress

  Mass of Ions in am
   POMASS =  65.39 63.55 16.00
  Ionic Valenz
   ZVAL   =  12.00 11.00  6.00
  Atomic Wigner-Seitz radii
   RWIGS  =  -1.00 -1.00 -1.00
  virtual crystal weights 
   VCA    =   1.00  1.00  1.00
   NELECT =    2366.0000    total number of electrons
   NUPDOWN=      -1.0000    fix difference up-down

 DOS related values:
   EMIN   =  10.00;   EMAX   =-10.00  energy-range for DOS
   EFERMI =   0.00
   ISMEAR =     0;   SIGMA  =   0.05  broadening in eV -4-tet -1-fermi 0-gaus

 Electronic relaxation 2 (details)
   IALGO  =     68    algorithm
   LDIAG  =      T    sub-space diagonalisation (order eigenvalues)
   LSUBROT=      F    optimize rotation matrix (better conditioning)
   TURBO    =      0    0=normal 1=particle mesh
   IRESTART =      0    0=no restart 2=restart with 2 vectors
   NREBOOT  =      0    no. of reboots
   NMIN     =      0    reboot dimension
   EREF     =   0.00    reference energy to select bands
   IMIX   =      4    mixing-type and parameters
     AMIX     =   0.40;   BMIX     =  1.00
     AMIX_MAG =   1.60;   BMIX_MAG =  1.00
     AMIN     =   0.10
     WC   =   100.;   INIMIX=   1;  MIXPRE=   1;  MAXMIX= -45

 Intra band minimization:
   WEIMIN = 0.0010     energy-eigenvalue tresh-hold
   EBREAK =  0.16E-08  absolut break condition
   DEPER  =   0.30     relativ break condition  

   TIME   =   0.40     timestep for ELM

  volume/ion in A,a.u.               =      27.28       184.06
  Fermi-wavevector in a.u.,A,eV,Ry     =   1.237156  2.337887 20.824479  1.530556
  Thomas-Fermi vector in A             =   2.371735
 
 Write flags
   LWAVE        =      F    write WAVECAR
   LDOWNSAMPLE  =      F    k-point downsampling of WAVECAR
   LCHARG       =      F    write CHGCAR
   LVTOT        =      F    write LOCPOT, total local potential
   LVHAR        =      F    write LOCPOT, Hartree potential only
   LELF         =      F    write electronic localiz. function (ELF)
   LORBIT       =      0    0 simple, 1 ext, 2 COOP (PROOUT), +10 PAW based schemes


 Dipole corrections
   LMONO  =      F    monopole corrections only (constant potential shift)
   LDIPOL =      F    correct potential (dipole corrections)
   IDIPOL =      3    1-x, 2-y, 3-z, 4-all directions 
   EPSILON=  1.0000000 bulk dielectric constant

 Exchange correlation treatment:
   GGA     =    PE    GGA type
   LEXCH   =     8    internal setting for exchange type
   LIBXC   =     F    Libxc                    
   VOSKOWN =     0    Vosko Wilk Nusair interpolation
   LHFCALC =     F    Hartree Fock is set to
   LHFONE  =     F    Hartree Fock one center treatment
   AEXX    =    0.0000 exact exchange contribution

 Linear response parameters
   LEPSILON=     F    determine dielectric tensor
   LRPA    =     F    only Hartree local field effects (RPA)
   LNABLA  =     F    use nabla operator in PAW spheres
   LVEL    =     F    velocity operator in full k-point grid
   CSHIFT  =0.1000    complex shift for real part using Kramers Kronig
   OMEGAMAX=  -1.0    maximum frequency
   DEG_THRESHOLD= 0.2000000E-02 threshold for treating states as degnerate
   RTIME   =   -0.100 relaxation time in fs
  (WPLASMAI=    0.000 imaginary part of plasma frequency in eV, 0.658/RTIME)
   DFIELD  = 0.0000000 0.0000000 0.0000000 field for delta impulse in time
 
  Optional k-point grid parameters
   LKPOINTS_OPT  =     F    use optional k-point grid
   KPOINTS_OPT_MODE=     1    mode for optional k-point grid
 
 Orbital magnetization related:
   ORBITALMAG=     F  switch on orbital magnetization
   LCHIMAG   =     F  perturbation theory with respect to B field
   DQ        =  0.001000  dq finite difference perturbation B field
   LLRAUG    =     F  two centre corrections for induced B field



--------------------------------------------------------------------------------------------------------


 conjugate gradient relaxation of ions
   using selective dynamics as specified on POSCAR
   WARNING: If single coordinates had been selected the selection of coordinates
            is made according to the corresponding   d i r e c t   coordinates!
            Don't support selection of single cartesian coordinates -- sorry ...
  !
 charge density and potential will be updated during run
 spin polarized calculation
 RMM-DIIS sequential band-by-band and
  variant of blocked Davidson during initial phase
 perform sub-space diagonalisation
    before iterative eigenvector-optimisation
 modified Broyden-mixing scheme, WC =      100.0
 initial mixing is a Kerker type mixing with AMIX =  0.4000 and BMIX =      1.0000
 Hartree-type preconditioning will be used
 using additional bands          337
 real space projection scheme for non local part
 use partial core corrections
 calculate Harris-corrections to forces 
   (improved forces if not selfconsistent)
 use gradient corrections 
 use of overlap-Matrix (Vanderbilt PP)
 Gauss-broadening in eV      SIGMA  =   0.05


--------------------------------------------------------------------------------------------------------


  energy-cutoff  :      400.00
  volume of cell :     5482.33
      direct lattice vectors                 reciprocal lattice vectors
    12.947972000 -0.000019020  0.000000082     0.077232237  0.044590204 -0.000000001
   -10.358403951 17.941221073 -0.000000024     0.000000082  0.055737614 -0.000000000
     0.000000142  0.000000063 23.600000000    -0.000000000 -0.000000000  0.042372881

  length of vectors
    12.947972000 20.716755200 23.600000000     0.089180182  0.055737614  0.042372881


 
 old parameters found on file WAVECAR:
  energy-cutoff  :      400.00
  volume of cell :     5482.33
      direct lattice vectors                 reciprocal lattice vectors
    12.947972000 -0.000019020  0.000000082     0.077232237  0.044590204 -0.000000001
   -10.358403951 17.941221073 -0.000000024     0.000000082  0.055737614 -0.000000000
     0.000000142  0.000000063 23.600000000    -0.000000000 -0.000000000  0.042372881

  length of vectors

 
 k-points in units of 2pi/SCALE and weight: KPOINTS created by Atomic Simulation Env
   0.00000000  0.00000000  0.00000000       0.500
   0.03861612  0.02229510 -0.00000000       0.500
 
 k-points in reciprocal lattice and weights: KPOINTS created by Atomic Simulation Env
   0.00000000  0.00000000  0.00000000       0.500
   0.50000000 -0.00000000  0.00000000       0.500
 
 position of ions in fractional coordinates (direct lattice) 
   0.06666675  0.08333328  0.05344149
   0.13333325  0.04166672  0.16032446
   0.06679427  0.08302952  0.25862783
   0.14494739  0.05578472  0.36623711
   0.26666675  0.08333328  0.05344149
   0.33333325  0.04166672  0.16032446
   0.26654914  0.08299926  0.25877348
   0.34492691  0.05583445  0.36569637
   0.46666675  0.08333328  0.05344149
   0.53333325  0.04166672  0.16032446
   0.46661981  0.08290317  0.25871618
   0.54475892  0.05567637  0.36679795
   0.66666675  0.08333328  0.05344149
   0.73333325  0.04166672  0.16032446
   0.66679142  0.08325744  0.25876445
   0.74483155  0.05571802  0.36650910
   0.86666675  0.08333328  0.05344149
   0.93333325  0.04166672  0.16032446
   0.86697720  0.08333332  0.25878131
   0.94495223  0.05583914  0.36600734
   0.06666675  0.20833328  0.05344149
   0.13333325  0.16666672  0.16032446
   0.06470124  0.20591149  0.26867136
   0.14801368  0.18475692  0.37296009
   0.26666675  0.20833328  0.05344149
   0.33333325  0.16666672  0.16032446
   0.26436237  0.20569653  0.26890485
   0.34806054  0.18466874  0.37271059
   0.46666675  0.20833328  0.05344149
   0.53333325  0.16666672  0.16032446
   0.46454782  0.20546015  0.26855579
   0.54811812  0.18475353  0.37282308
   0.66666675  0.20833328  0.05344149
   0.73333325  0.16666672  0.16032446
   0.66486050  0.20577335  0.26963683
   0.74838695  0.18476096  0.37284915
   0.86666675  0.20833328  0.05344149
   0.93333325  0.16666672  0.16032446
   0.86473151  0.20593179  0.26913992
   0.94829963  0.18472425  0.37256298
   0.06666675  0.33333328  0.05344149
   0.13333325  0.29166672  0.16032446
   0.06083862  0.32551073  0.25719281
   0.13620179  0.29505692  0.42030187
   0.26666675  0.33333328  0.05344149
   0.33333325  0.29166672  0.16032446
   0.26081760  0.32516864  0.25672410
   0.33667211  0.29542735  0.41980305
   0.46666675  0.33333328  0.05344149
   0.53333325  0.29166672  0.16032446
   0.46050825  0.32475753  0.25656508
   0.53592430  0.29446750  0.42175109
   0.66666675  0.33333328  0.05344149
   0.73333325  0.29166672  0.16032446
   0.66012854  0.32479242  0.25592324
   0.73683159  0.29525830  0.41996116
   0.86666675  0.33333328  0.05344149
   0.93333325  0.29166672  0.16032446
   0.86051726  0.32521340  0.25613644
   0.93656890  0.29462638  0.42076370
   0.06666675  0.45833328  0.05344149
   0.13333325  0.41666672  0.16032446
   0.06364817  0.45346790  0.25671497
   0.11996026  0.39923746  0.34922323
   0.26666675  0.45833328  0.05344149
   0.33333325  0.41666672  0.16032446
   0.26355892  0.45368916  0.25665766
   0.31884549  0.39877303  0.34901163
   0.46666675  0.45833328  0.05344149
   0.53333325  0.41666672  0.16032446
   0.46328362  0.45317765  0.25627551
   0.51778423  0.39717368  0.34898188
   0.66666675  0.45833328  0.05344149
   0.73333325  0.41666672  0.16032446
   0.66286479  0.45282844  0.25615938
   0.71789992  0.39654862  0.34886117
   0.86666675  0.45833328  0.05344149
   0.93333325  0.41666672  0.16032446
   0.86293268  0.45272613  0.25638825
   0.91913088  0.39758434  0.34896902
   0.06666675  0.58333328  0.05344149
   0.13333325  0.54166672  0.16032446
   0.06752598  0.58405925  0.25740422
   0.12891289  0.53625125  0.34912533
   0.26666675  0.58333328  0.05344149
   0.33333325  0.54166672  0.16032446
   0.26746473  0.58420790  0.25732040
   0.32936461  0.53647983  0.34920674
   0.46666675  0.58333328  0.05344149
   0.53333325  0.54166672  0.16032446
   0.46700036  0.58420689  0.25718949
   0.52773959  0.53490213  0.34767667
   0.66666675  0.58333328  0.05344149
   0.73333325  0.54166672  0.16032446
   0.66697354  0.58418094  0.25703117
   0.72766586  0.53470130  0.34721168
   0.86666675  0.58333328  0.05344149
   0.93333325  0.54166672  0.16032446
   0.86738976  0.58406974  0.25709548
   0.92732540  0.53451196  0.34768719
   0.06666675  0.70833328  0.05344149
   0.13333325  0.66666672  0.16032446
   0.06807393  0.70974396  0.26740598
   0.13428345  0.66644574  0.36787442
   0.26666675  0.70833328  0.05344149
   0.33333325  0.66666672  0.16032446
   0.26811444  0.70984015  0.26737705
   0.33373495  0.66669253  0.36833284
[...]
 -----------------------------------------------------------------------------------------------
   0.225E+01 0.149E+02 -.270E+02   -.204E-11 0.102E-10 0.105E-10   -.230E+01 -.150E+02 0.267E+02   0.841E-05 0.297E-02 0.129E-01
 
 
 POSITION                                       TOTAL-FORCE (eV/Angst)
 -----------------------------------------------------------------------------------
     -0.00000      1.49510      1.26122         0.003655      0.008039      0.057476
      1.29479      0.74755      3.78366        -0.000301     -0.034382     -0.134585
      0.00480      1.48965      6.10362         0.001181      0.001706      0.000645
      1.29893      1.00084      8.64320         0.001238      0.000319      0.001392
      2.58959      1.49510      1.26122        -0.001739      0.006557      0.060765
      3.88439      0.74755      3.78366        -0.004394     -0.043173     -0.120452
      2.59153      1.48910      6.10705         0.000847      0.001507     -0.001557
      3.88775      1.00173      8.63043        -0.000200      0.000646      0.000620
      5.17919      1.49509      1.26122        -0.032250     -0.003952      0.045847
      6.47398      0.74754      3.78366        -0.008685     -0.037995     -0.105894
      5.18304      1.48738      6.10570        -0.000684      0.001676     -0.001157
      6.47680      0.99889      8.65643        -0.000590      0.000660      0.002545
      7.76878      1.49509      1.26122        -0.000603      0.021299      0.055284
      9.06358      0.74754      3.78366         0.002136     -0.032888     -0.101954
      7.77118      1.49373      6.10684        -0.001000      0.000298     -0.000253
      9.06691      0.99964      8.64961         0.000604      0.004190      0.000800
     10.35838      1.49508      1.26122         0.005803      0.035920      0.056824
     11.65317      0.74753      3.78366         0.015901     -0.030683     -0.121843
     10.36240      1.49509      6.10724         0.003621      0.000233     -0.000614
     11.65681      1.00180      8.63777         0.002738      0.000255     -0.000186
     -1.29480      3.73775      1.26122        -0.007949     -0.007264     -0.017544
     -0.00001      2.99020      3.78366         0.016195      0.035389      0.056704
     -1.29516      3.69430      6.34064        -0.000712     -0.000470     -0.001773
      0.00269      3.31476      8.80186        -0.002561      0.003593     -0.000158
      1.29479      3.73775      1.26122         0.001938      0.002881     -0.011717
      2.58959      2.99020      3.78366         0.004824      0.029450      0.037866
      1.29227      3.69044      6.34615        -0.000368      0.001177     -0.003923
      2.59380      3.31318      8.79597        -0.001690      0.000945      0.001838
      3.88439      3.73774      1.26122         0.004285     -0.002791     -0.015760
      5.17918      2.99019      3.78366         0.025224      0.051273      0.037159
      3.88671      3.68620      6.33792         0.000653      0.002084     -0.000273
      5.18327      3.31469      8.79862         0.002392      0.001347      0.001037
      6.47398      3.73774      1.26122         0.003877      0.025808      0.013614
      7.76878      2.99019      3.78366         0.009027      0.052524      0.047693
      6.47711      3.69181      6.36343         0.000919     -0.000817      0.000105
      7.77626      3.31482      8.79924        -0.000969      0.002820      0.000052
      9.06358      3.73774      1.26122        -0.003919      0.001654     -0.009737
     10.35837      2.99019      3.78366         0.002209      0.045892      0.062908
      9.06339      3.69465      6.35170        -0.001374      0.000935     -0.000063
     10.36511      3.31416      8.79249        -0.001377      0.000331      0.001422
     -2.58960      5.98040      1.26122        -0.010240      0.019761      0.053982
     -1.29481      5.23285      3.78366         0.001044     -0.121037     -0.120593
     -2.58403      5.84006      6.06975        -0.001564     -0.000249     -0.005841
     -1.29278      5.29368      9.91912        -0.000383      0.002043     -0.005297
     -0.00001      5.98040      1.26122         0.004283      0.021090      0.067747
      1.29479      5.23285      3.78366         0.018015     -0.144008     -0.139799
      0.00883      5.83392      6.05869         0.000499      0.003541      0.002688
      1.29907      5.30032      9.90735        -0.001617      0.003527     -0.001510
      2.58959      5.98040      1.26122        -0.017562      0.007117      0.058471
      3.88438      5.23285      3.78366         0.007593     -0.151781     -0.151511
      2.59868      5.82654      6.05494         0.001144      0.003438      0.004263
      3.88892      5.28310      9.95333         0.001223      0.005540      0.000053
      5.17918      5.98039      1.26122         0.013201     -0.008083      0.049106
      6.47398      5.23284      3.78366         0.016135     -0.164205     -0.169628
      5.18299      5.82716      6.03979        -0.003409      0.003816      0.004381
      6.48207      5.29728      9.91108         0.003875      0.000264      0.002989
      7.76878      5.98039      1.26122        -0.004573     -0.003966      0.055365
      9.06357      5.23284      3.78366         0.026766     -0.130475     -0.145173
      7.77326      5.83471      6.04482         0.002095      0.003637      0.005473
      9.07481      5.28594      9.93002         0.001957      0.002184     -0.007027
     -3.88440      8.22306      1.26122         0.018950     -0.036545      0.044953
     -2.58961      7.47551      3.78366        -0.000446     -0.022471     -0.173632
     -3.87309      8.13577      6.05847        -0.000161     -0.000974     -0.004460
     -2.58222      7.16281      8.24167        -0.001212     -0.002880      0.001286
     -1.29481      8.22305      1.26122        -0.012109     -0.023122      0.040435
     -0.00001      7.47550      3.78366        -0.030766     -0.019011     -0.199044
     -1.28694      8.13973      6.05712        -0.002996     -0.002338     -0.003481
     -0.00225      7.15447      8.23667        -0.000130      0.002873     -0.002537
      1.29479      8.22305      1.26122        -0.026299     -0.032471      0.062565
      2.58958      7.47550      3.78366        -0.014800     -0.009457     -0.193290
      1.30439      8.13055      6.04810         0.001885      0.002331      0.001728
      2.59017      7.12577      8.23597        -0.002295      0.006744      0.002642
      3.88438      8.22305      1.26122        -0.006967     -0.035640      0.065731
      5.17918      7.47550      3.78366         0.010841     -0.014991     -0.170847
      3.89217      8.12428      6.04536         0.001179      0.004426      0.000419
      5.18774      7.11455      8.23312         0.003057      0.004363      0.005120
      6.47398      8.22304      1.26122         0.009097     -0.035042      0.061221
      7.76877      7.47549      3.78366         0.014323     -0.017984     -0.179041
      6.48371      8.12244      6.05076         0.000814      0.000235      0.000193
      7.78254      7.13313      8.23567        -0.001420      0.001952     -0.002624
     -5.17920     10.46571      1.26122        -0.005224     -0.002588      0.082608
     -3.88441      9.71816      3.78366         0.007176      0.033436     -0.115213
     -5.17560     10.47873      6.07474         0.000436      0.004443      0.000221
     -3.88555      9.62100      8.23936         0.002275      0.000946     -0.000956
     -2.58961     10.46571      1.26122         0.005088     -0.015263      0.065165
     -1.29481      9.71816      3.78366         0.000327      0.030563     -0.107733
     -2.58834     10.48140      6.07276         0.001629     -0.001513     -0.000410
     -1.29247      9.62510      8.24128        -0.002467      0.005174     -0.002167
     -0.00001     10.46570      1.26122         0.001097     -0.026771      0.070214
      1.29478      9.71815      3.78366        -0.005897      0.058061     -0.103548
     -0.00474     10.48138      6.06967         0.000478      0.002278      0.000270
      1.29243      9.59679      8.20517        -0.000196      0.000226     -0.001295
      2.58958     10.46570      1.26122        -0.002471      0.013284      0.084393
      3.88438      9.71815      3.78366        -0.006485      0.046211     -0.103187
      2.58477     10.48091      6.06594         0.001223      0.004391      0.000949
      3.88315      9.59318      8.19420        -0.001377      0.002151      0.003955
      5.17918     10.46569      1.26122         0.005186      0.014784      0.095957
      6.47397      9.71814      3.78366         0.013096      0.044708     -0.112807
      5.18091     10.47891      6.06745         0.000602      0.001714      0.000621
      6.47029      9.58978      8.20542        -0.000575      0.000193     -0.001450
     -6.47400     12.70836      1.26122        -0.008259     -0.023924      0.070253
     -5.17921     11.96081      3.78366        -0.008044      0.128858      0.032248
     -6.47040     12.73367      6.31078         0.001536      0.001366      0.001573
     -5.16462     11.95685      8.68184        -0.001476      0.000235     -0.002958
     -3.88441     12.70836      1.26122        -0.002969     -0.004815      0.056466
     -2.58961     11.96081      3.78366        -0.003565      0.120002      0.033207
     -3.88127     12.73539      6.31010        -0.000468      0.000528      0.012204
     -2.58468     11.96127      8.69266         0.002764      0.002574     -0.004340
     -1.29481     12.70836      1.26122        -0.006270      0.003234      0.056264
     -0.00002     11.96080      3.78366         0.007169      0.122395      0.047329
     -1.29604     12.73619      6.31721        -0.000509      0.000343      0.010382
     -0.00288     11.95638      8.68548         0.003658      0.002930     -0.003551
      1.29478     12.70835      1.26122         0.003555     -0.001960      0.052039
      2.58958     11.96080      3.78366        -0.000561      0.108580      0.042388
      1.29298     12.73505      6.30446         0.002109      0.000148     -0.000389
      2.59264     11.94714      8.65953        -0.001221      0.003153      0.001603
      3.88437     12.70835      1.26122        -0.003686     -0.026283      0.050029
      5.17917     11.96080      3.78366         0.010718      0.116244      0.028060
      3.88686     12.73433      6.29756         0.000303      0.002265     -0.000611
      5.19153     11.94866      8.65607         0.000345      0.003784      0.000974
     -7.76880     14.95102      1.26122        -0.010066      0.040215      0.026684
     -6.47401     14.20347      3.78366         0.008684     -0.074052      0.117196
     -7.76441     14.96810      6.18388         0.000838     -0.000167     -0.001234
     -6.47312     14.37715      8.66094        -0.001888      0.002730      0.003156
     -5.17921     14.95101      1.26122         0.008549      0.039978      0.021473
     -3.88441     14.20346      3.78366         0.005993     -0.069858      0.119988
     -5.17193     14.96561      6.18260         0.001049      0.000542      0.003037
     -3.88449     14.37604      8.70275        -0.001410      0.004768      0.004019
     -2.58961     14.95101      1.26122        -0.000618      0.017086      0.025993
     -1.29482     14.20346      3.78366        -0.005009     -0.049886      0.112201
     -2.58611     14.96377      6.17625        -0.000997      0.000136      0.008073
     -1.29447     14.37561      8.69378        -0.001355      0.001072      0.001958
     -0.00002     14.95100      1.26122        -0.000687      0.014191      0.026447
      1.29477     14.20345      3.78366        -0.011800     -0.060601      0.114554
     -0.00037     14.96944      6.17504         0.000031     -0.001927      0.000731
      1.29553     14.37530      8.63396        -0.000709     -0.000200      0.001362
      2.58957     14.95100      1.26122        -0.017620      0.023895      0.018994
      3.88437     14.20345      3.78366         0.000545     -0.064959      0.130190
      2.59386     14.96909      6.17715        -0.001072      0.001239     -0.004731
      3.88712     14.38390      8.64904        -0.001446     -0.004093     -0.006796
     -9.06360     17.19367      1.26122        -0.002073      0.018507      0.094007
     -7.76881     16.44612      3.78366         0.006584     -0.000774     -0.073705
     -9.05913     17.20617      6.14517        -0.000339      0.000840     -0.000330
     -7.76341     16.66090      8.61202        -0.001871     -0.002555      0.002654
     -6.47401     17.19366      1.26122        -0.000175      0.017993      0.089517
     -5.17921     16.44611      3.78366        -0.002555     -0.007464     -0.068652
     -6.46980     17.20483      6.14957        -0.000329      0.001933     -0.001327
     -5.17411     16.65473      8.61008        -0.001925      0.001555      0.001129
     -3.88442     17.19366      1.26122        -0.018731     -0.006286      0.084336
     -2.58962     16.44611      3.78366        -0.005191     -0.013969     -0.062551
     -3.88080     17.20247      6.15009        -0.001543      0.002260     -0.002066
     -2.59060     16.64859      8.60403         0.001188      0.003185      0.001687
     -1.29482     17.19366      1.26122        -0.009319     -0.017837      0.102281
     -0.00003     16.44611      3.78366        -0.005113     -0.029225     -0.060061
     -1.29205     17.20888      6.17001        -0.001113      0.000138     -0.001516
      0.00151     16.64967      8.61072         0.003886      0.002110      0.000491
      1.29477     17.19365      1.26122         0.013904     -0.003895      0.091196
      2.58957     16.44610      3.78366        -0.008966     -0.008819     -0.056936
      1.29908     17.20769      6.16079         0.001553      0.001875     -0.000244
      2.59156     16.66019      8.61075         0.002993     -0.001175      0.001212
     -3.86497     12.94226     10.74370         0.001792      0.001869     -0.003472
     -3.87090      7.99865     10.18726        -0.000191      0.002448     -0.000055
     -3.84755     10.50637     10.53483         0.002223      0.001157     -0.001206
     -2.57903      9.02282     12.08566         0.000536      0.002609     -0.006750
     -3.87894      7.54564     13.57447        -0.002392      0.006889      0.000295
     -4.00533     10.06493     13.96379         0.001749      0.003446     -0.005747
     -1.30699     10.51602     10.53884        -0.002865      0.000079     -0.001448
     -1.30311     12.95528     10.74542        -0.003299      0.000204     -0.000485
     -2.57997     11.69301     12.50282        -0.001196      0.006617      0.003372
      0.06665     11.59848     12.34620         0.004270      0.005748     -0.002942
     -1.15184     10.07922     13.95811        -0.010170      0.012276      0.000950
      1.30240     12.96391     10.68926         0.000213      0.005445      0.000492
     -1.28776      8.00672     10.19172        -0.000190      0.003056     -0.000954
     -2.58119      6.45561     11.76716        -0.000396      0.000421      0.003883
      0.01052      6.45898     11.75777        -0.004337     -0.000227     -0.001575
     -1.28316      7.55393     13.57184         0.002911      0.004370      0.000478
      1.29879      7.98770     10.17803        -0.000801      0.006543      0.004520
      1.30423     10.48945     10.46872         0.001497      0.002800     -0.001553
      0.01301      9.02668     12.07116         0.000255      0.001909     -0.001878
      2.61242      9.01139     12.02863        -0.002974      0.006184      0.001182
      1.30666      7.56554     13.56690        -0.000915      0.000981      0.000605
      1.35802     10.07266     13.85055        -0.004564      0.005969     -0.002020
      3.89809     10.48833     10.45776        -0.000444      0.005176      0.004311
      3.90309     12.95326     10.67969         0.000064      0.009876      0.001009
      2.61907     11.61676     12.34453         0.001351      0.005374     -0.001001
      5.18188     11.61165     12.34689        -0.001619      0.004474     -0.000276
      3.89825     10.09802     13.83561        -0.000559      0.011213      0.002676
     -6.45729     12.95697     10.69677        -0.000676      0.005277      0.000081
      3.89883      7.98130     10.15629         0.001404      0.004339      0.004661
      2.59549      6.45392     11.76842         0.000065      0.006739     -0.001628
      5.19020      6.45186     11.77223        -0.000685      0.006328     -0.002021
      3.89461      7.56500     13.57529         0.000159      0.010857     -0.001968
      6.49280      7.97913     10.17410         0.000045      0.002970      0.004109
      6.48953     10.48260     10.46665        -0.002007      0.002192     -0.001277
      5.18015      9.00636     12.02933         0.002822      0.005157      0.001329
     -5.16843      9.01570     12.06867        -0.000721      0.003496      0.000355
      6.48259      7.56083     13.57425         0.000592     -0.001160      0.000718
      6.43678     10.06311     13.85402         0.005555      0.003042     -0.002055
     -5.22163     11.58549     12.34604        -0.004652      0.006987     -0.000812
      7.77287      6.45330     11.76109         0.002933      0.000757     -0.000097
     -2.58519     11.19111     14.40914         0.007358      0.002389     -0.005611
 -----------------------------------------------------------------------------------
    total drift:                               -0.040919     -0.046059     -0.307694


--------------------------------------------------------------------------------------------------------



  FREE ENERGIE OF THE ION-ELECTRON SYSTEM (eV)
  ---------------------------------------------------
  free  energy   TOTEN  =      -367.04724855 eV

  energy  without entropy=     -367.01180851  energy(sigma->0) =     -367.02952853
 


--------------------------------------------------------------------------------------------------------


    POTLOK:  cpu time      0.2192: real time      0.2213


--------------------------------------------------------------------------------------------------------


 stress matrix after NEB project (eV)
     -7.57018     -9.78743     -0.15992
     -9.78743    -18.50624      1.71227
     -0.15992      1.71227    -20.14513
  FORCES: max atom, RMS     0.015970    0.004097
  FORCE total and by dimension    0.058090    0.012276
  Stress total and by dimension   31.672024   20.145128


--------------------------------------------------------------------------------------------------------


  
 reached required accuracy - stopping structural energy minimisation
     LOOP+:  cpu time    974.3800: real time    987.1834
    4ORBIT:  cpu time      0.0000: real time      0.0000

 total amount of memory used by VASP MPI-rank0   218062. kBytes
=======================================================================

   base      :      30000. kBytes
   nonlr-proj:      11995. kBytes
   fftplans  :       5101. kBytes
   grid      :      13358. kBytes
   one-center:        404. kBytes
   wavefun   :     157204. kBytes
 
  
  
 General timing and accounting informations for this job:
 ========================================================
  
                  Total CPU time used (sec):     1016.327
                            User time (sec):      964.909
                          System time (sec):       51.417
                         Elapsed time (sec):     1027.540
  
                   Maximum memory used (kb):      596672.
                   Average memory used (kb):          N/A
  
                          Minor page faults:        76457
                          Major page faults:            0
                 Voluntary context switches:         3553
