 vasp.5.4.4.18Apr17-6-g9f103f2a35 (build Apr 27 2017 09:43:28) complex          
  
 executed on    KNLVTST17noSOLomp date 2023.05.25  00:09:31
 running on   64 total cores
 distrk:  each k-point on   32 cores,    2 groups
 distr:  one band on NCORES_PER_BAND=   8 cores,    4 groups


--------------------------------------------------------------------------------------------------------


 INCAR:
 POTCAR:    PAW_PBE Zn 06Sep2000                  
 POTCAR:    PAW_PBE Cu 22Jun2005                  
 POTCAR:    PAW_PBE O 08Apr2002                   
 POTCAR:    PAW_PBE C 08Apr2002                   
 POTCAR:    PAW_PBE H 15Jun2001                   

 ----------------------------------------------------------------------------- 
|                                                                             |
|           W    W    AA    RRRRR   N    N  II  N    N   GGGG   !!!           |
|           W    W   A  A   R    R  NN   N  II  NN   N  G    G  !!!           |
|           W    W  A    A  R    R  N N  N  II  N N  N  G       !!!           |
|           W WW W  AAAAAA  RRRRR   N  N N  II  N  N N  G  GGG   !            |
|           WW  WW  A    A  R   R   N   NN  II  N   NN  G    G                |
|           W    W  A    A  R    R  N    N  II  N    N   GGGG   !!!           |
|                                                                             |
|      You have enabled k-point parallelism (KPAR>1).                         |
|      This developmental code was originally  written by Paul Kent at ORNL,  |
|      and carefully double checked in Vienna.                                |
|      GW as well as linear response parallelism added by Martijn Marsman     |
|      and Georg Kresse.                                                      |
|      Carefully verify results versus KPAR=1.                                |
|      Report problems to Paul Kent and Vienna.                               |
|                                                                             |
 ----------------------------------------------------------------------------- 

 POTCAR:    PAW_PBE Zn 06Sep2000                  
   VRHFIN =Zn: d10 p2                                                           
   LEXCH  = PE                                                                  
   EATOM  =  1748.8345 eV,  128.5357 Ry                                         
                                                                                
   TITEL  = PAW_PBE Zn 06Sep2000                                                
   LULTRA =        F    use ultrasoft PP ?                                      
   IUNSCR =        1    unscreen: 0-lin 1-nonlin 2-no                           
   RPACOR =    2.000    partial core radius                                     
   POMASS =   65.390; ZVAL   =   12.000    mass and valenz                      
   RCORE  =    2.300    outmost cutoff radius                                   
   RWIGS  =    2.400; RWIGS  =    1.270    wigner-seitz radius (au A)           
   ENMAX  =  276.723; ENMIN  =  207.542 eV                                      
   RCLOC  =    1.828    cutoff for local pot                                    
   LCOR   =        T    correct aug charges                                     
   LPAW   =        T    paw PP                                                  
   EAUG   =  575.892                                                            
   DEXC   =    0.000                                                            
   RMAX   =    2.347    core radius for proj-oper                               
   RAUG   =    1.300    factor for augmentation sphere                          
   RDEP   =    2.324    radius for radial grids                                 
   RDEPT  =    1.788    core radius for aug-charge                              
                                                                                
   Atomic configuration                                                         
    9 entries                                                                   
     n  l   j            E        occ.                                          
     1  0  0.50     -9524.6913   2.0000                                         
     2  0  0.50     -1158.1882   2.0000                                         
     2  1  1.50     -1003.8506   6.0000                                         
     3  0  0.50      -129.2194   2.0000                                         
     3  1  1.50       -83.3890   6.0000                                         
     3  2  2.50       -10.1410  10.0000                                         
     4  0  0.50        -5.9785   2.0000                                         
     4  1  0.50        -4.0817   0.0000                                         
     4  3  2.50        -1.3606   0.0000                                         
   Description                                                                  
     l       E           TYP  RCUT    TYP  RCUT                                 
     2    -10.1410010     23  2.300                                             
     2    -11.5015836     23  2.300                                             
     0     -5.9785163     23  2.300                                             
     0      1.1858015     23  2.300                                             
     1     -2.7211652     23  2.300                                             
     1     13.2444212     23  2.300                                             
  local pseudopotential read in
  partial core-charges read in
  partial kinetic energy density read in
  atomic valenz-charges read in
  non local Contribution for L=           2  read in
    real space projection operators read in
  non local Contribution for L=           2  read in
    real space projection operators read in
  non local Contribution for L=           0  read in
    real space projection operators read in
  non local Contribution for L=           0  read in
    real space projection operators read in
  non local Contribution for L=           1  read in
    real space projection operators read in
  non local Contribution for L=           1  read in
    real space projection operators read in
    PAW grid and wavefunctions read in
 
   number of l-projection  operators is LMAX  =           6
   number of lm-projection operators is LMMAX =          18
 
 POTCAR:    PAW_PBE Cu 22Jun2005                  
   VRHFIN =Cu: d10 p1                                                           
   LEXCH  = PE                                                                  
   EATOM  =  1390.9808 eV,  102.2342 Ry                                         
                                                                                
   TITEL  = PAW_PBE Cu 22Jun2005                                                
   LULTRA =        F    use ultrasoft PP ?                                      
   IUNSCR =        1    unscreen: 0-lin 1-nonlin 2-no                           
   RPACOR =    2.000    partial core radius                                     
   POMASS =   63.546; ZVAL   =   11.000    mass and valenz                      
   RCORE  =    2.300    outmost cutoff radius                                   
   RWIGS  =    2.200; RWIGS  =    1.164    wigner-seitz radius (au A)           
   ENMAX  =  295.446; ENMIN  =  221.585 eV                                      
   ICORE  =        3    local potential                                         
   LCOR   =        T    correct aug charges                                     
   LPAW   =        T    paw PP                                                  
   EAUG   =  586.980                                                            
   DEXC   =    0.000                                                            
   RMAX   =    2.344    core radius for proj-oper                               
   RAUG   =    1.300    factor for augmentation sphere                          
   RDEP   =    2.302    radius for radial grids                                 
   RDEPT  =    1.771    core radius for aug-charge                              
                                                                                
   Atomic configuration                                                         
    9 entries                                                                   
     n  l   j            E        occ.                                          
     1  0  0.50     -8850.2468   2.0000                                         
     2  0  0.50     -1062.3498   2.0000                                         
     2  1  1.50      -916.8226   6.0000                                         
     3  0  0.50      -114.6929   2.0000                                         
     3  1  1.50       -72.1325   6.0000                                         
     3  2  2.50        -5.0394  10.0000                                         
     4  0  0.50        -4.6097   1.0000                                         
     4  1  0.50        -4.0817   0.0000                                         
     4  3  2.50        -1.3606   0.0000                                         
   Description                                                                  
     l       E           TYP  RCUT    TYP  RCUT                                 
     2     -5.0393973     23  2.200                                             
     2     10.8846608     23  2.200                                             
     0     -4.6097109     23  2.200                                             
     0      8.2520465     23  2.200                                             
     1     -2.7211652     23  2.200                                             
     1     21.7055443     23  2.200                                             
     3      2.7211652     23  2.300                                             
  local pseudopotential read in
  partial core-charges read in
  partial kinetic energy density read in
  atomic valenz-charges read in
  non local Contribution for L=           2  read in
    real space projection operators read in
  non local Contribution for L=           2  read in
    real space projection operators read in
  non local Contribution for L=           0  read in
    real space projection operators read in
  non local Contribution for L=           0  read in
    real space projection operators read in
  non local Contribution for L=           1  read in
    real space projection operators read in
  non local Contribution for L=           1  read in
    real space projection operators read in
    PAW grid and wavefunctions read in
 
   number of l-projection  operators is LMAX  =           6
   number of lm-projection operators is LMMAX =          18
 
 POTCAR:    PAW_PBE O 08Apr2002                   
   VRHFIN =O: s2p4                                                              
   LEXCH  = PE                                                                  
   EATOM  =   432.3788 eV,   31.7789 Ry                                         
                                                                                
   TITEL  = PAW_PBE O 08Apr2002                                                 
   LULTRA =        F    use ultrasoft PP ?                                      
   IUNSCR =        1    unscreen: 0-lin 1-nonlin 2-no                           
   RPACOR =    1.200    partial core radius                                     
   POMASS =   16.000; ZVAL   =    6.000    mass and valenz                      
   RCORE  =    1.520    outmost cutoff radius                                   
   RWIGS  =    1.550; RWIGS  =    0.820    wigner-seitz radius (au A)           
   ENMAX  =  400.000; ENMIN  =  300.000 eV                                      
   ICORE  =        2    local potential                                         
   LCOR   =        T    correct aug charges                                     
   LPAW   =        T    paw PP                                                  
   EAUG   =  605.392                                                            
   DEXC   =    0.000                                                            
   RMAX   =    1.553    core radius for proj-oper                               
   RAUG   =    1.300    factor for augmentation sphere                          
   RDEP   =    1.550    radius for radial grids                                 
   RDEPT  =    1.329    core radius for aug-charge                              
                                                                                
   Atomic configuration                                                         
    4 entries                                                                   
     n  l   j            E        occ.                                          
     1  0  0.50      -514.6923   2.0000                                         
     2  0  0.50       -23.9615   2.0000                                         
     2  1  0.50        -9.0305   4.0000                                         
     3  2  1.50        -9.5241   0.0000                                         
   Description                                                                  
     l       E           TYP  RCUT    TYP  RCUT                                 
     0    -23.9615318     23  1.200                                             
     0     -9.5240782     23  1.200                                             
     1     -9.0304911     23  1.520                                             
     1      8.1634956     23  1.520                                             
     2     -9.5240782      7  1.500                                             
  local pseudopotential read in
  partial core-charges read in
  partial kinetic energy density read in
  kinetic energy density of atom read in
  atomic valenz-charges read in
  non local Contribution for L=           0  read in
    real space projection operators read in
  non local Contribution for L=           0  read in
    real space projection operators read in
  non local Contribution for L=           1  read in
    real space projection operators read in
  non local Contribution for L=           1  read in
    real space projection operators read in
    PAW grid and wavefunctions read in
 
   number of l-projection  operators is LMAX  =           4
   number of lm-projection operators is LMMAX =           8
 
 POTCAR:    PAW_PBE C 08Apr2002                   
   VRHFIN =C: s2p2                                                              
   LEXCH  = PE                                                                  
   EATOM  =   147.1560 eV,   10.8157 Ry                                         
                                                                                
   TITEL  = PAW_PBE C 08Apr2002                                                 
   LULTRA =        F    use ultrasoft PP ?                                      
   IUNSCR =        1    unscreen: 0-lin 1-nonlin 2-no                           
   RPACOR =    1.200    partial core radius                                     
   POMASS =   12.011; ZVAL   =    4.000    mass and valenz                      
   RCORE  =    1.500    outmost cutoff radius                                   
   RWIGS  =    1.630; RWIGS  =    0.863    wigner-seitz radius (au A)           
   ENMAX  =  400.000; ENMIN  =  300.000 eV                                      
   ICORE  =        2    local potential                                         
   LCOR   =        T    correct aug charges                                     
   LPAW   =        T    paw PP                                                  
   EAUG   =  644.873                                                            
   DEXC   =    0.000                                                            
   RMAX   =    1.529    core radius for proj-oper                               
   RAUG   =    1.300    factor for augmentation sphere                          
   RDEP   =    1.501    radius for radial grids                                 
   RDEPT  =    1.300    core radius for aug-charge                              
                                                                                
   Atomic configuration                                                         
    4 entries                                                                   
     n  l   j            E        occ.                                          
     1  0  0.50      -273.3789   2.0000                                         
     2  0  0.50       -13.7508   2.0000                                         
     2  1  0.50        -5.2854   2.0000                                         
     3  2  1.50        -5.4423   0.0000                                         
   Description                                                                  
     l       E           TYP  RCUT    TYP  RCUT                                 
     0    -13.7508458     23  1.200                                             
     0     -8.2022199     23  1.200                                             
     1     -5.2854383     23  1.500                                             
     1     34.0145650     23  1.500                                             
     2     -5.4423304      7  1.500                                             
  local pseudopotential read in
  partial core-charges read in
  partial kinetic energy density read in
  atomic valenz-charges read in
  non local Contribution for L=           0  read in
    real space projection operators read in
  non local Contribution for L=           0  read in
    real space projection operators read in
  non local Contribution for L=           1  read in
    real space projection operators read in
  non local Contribution for L=           1  read in
    real space projection operators read in
    PAW grid and wavefunctions read in
 
   number of l-projection  operators is LMAX  =           4
   number of lm-projection operators is LMMAX =           8
 
 POTCAR:    PAW_PBE H 15Jun2001                   
   VRHFIN =H: ultrasoft test                                                    
   LEXCH  = PE                                                                  
   EATOM  =    12.4884 eV,    0.9179 Ry                                         
                                                                                
   TITEL  = PAW_PBE H 15Jun2001                                                 
   LULTRA =        F    use ultrasoft PP ?                                      
   IUNSCR =        0    unscreen: 0-lin 1-nonlin 2-no                           
   RPACOR =    0.000    partial core radius                                     
   POMASS =    1.000; ZVAL   =    1.000    mass and valenz                      
   RCORE  =    1.100    outmost cutoff radius                                   
   RWIGS  =    0.700; RWIGS  =    0.370    wigner-seitz radius (au A)           
   ENMAX  =  250.000; ENMIN  =  200.000 eV                                      
   RCLOC  =    0.701    cutoff for local pot                                    
   LCOR   =        T    correct aug charges                                     
   LPAW   =        T    paw PP                                                  
   EAUG   =  400.000                                                            
   RMAX   =    1.123    core radius for proj-oper                               
   RAUG   =    1.200    factor for augmentation sphere                          
   RDEP   =    1.112    radius for radial grids                                 
   RDEPT  =    0.926    core radius for aug-charge                              
                                                                                
   Atomic configuration                                                         
    2 entries                                                                   
     n  l   j            E        occ.                                          
     1  0  0.50        -6.4927   1.0000                                         
     2  1  0.50        -3.4015   0.0000                                         
   Description                                                                  
     l       E           TYP  RCUT    TYP  RCUT                                 
     0     -6.4927494     23  1.100                                             
     0      6.8029130     23  1.100                                             
     1     -4.0817478     23  1.100                                             
  local pseudopotential read in
  atomic valenz-charges read in
  non local Contribution for L=           0  read in
    real space projection operators read in
  non local Contribution for L=           0  read in
    real space projection operators read in
  non local Contribution for L=           1  read in
    real space projection operators read in
    PAW grid and wavefunctions read in
 
   number of l-projection  operators is LMAX  =           3
   number of lm-projection operators is LMMAX =           5
 
 Optimization of the real space projectors (new method)

 maximal supplied QI-value         = 16.25
 optimisation between [QCUT,QGAM] = [ 10.24, 20.48] = [ 29.35,117.42] Ry 
 Optimized for a Real-space Cutoff    1.38 Angstroem

   l    n(q)    QCUT    max X(q) W(low)/X(q) W(high)/X(q)  e(spline) 
   2      7    10.239    46.356    0.21E-03    0.48E-03    0.10E-06
   2      7    10.239    41.843    0.21E-03    0.50E-03    0.10E-06
   0      8    10.239    48.958    0.37E-03    0.79E-04    0.11E-06
   0      8    10.239    32.776    0.35E-03    0.73E-04    0.10E-06
   1      8    10.239    17.787    0.49E-03    0.70E-03    0.14E-06
   1      8    10.239    14.435    0.42E-03    0.61E-03    0.13E-06
 Optimization of the real space projectors (new method)

 maximal supplied QI-value         = 16.25
 optimisation between [QCUT,QGAM] = [ 10.24, 20.48] = [ 29.35,117.42] Ry 
 Optimized for a Real-space Cutoff    1.55 Angstroem

   l    n(q)    QCUT    max X(q) W(low)/X(q) W(high)/X(q)  e(spline) 
   2      9    10.239     4.610    0.85E-04    0.29E-03    0.14E-06
   2      9    10.239     8.522    0.15E-03    0.50E-03    0.27E-06
   0     10    10.239    51.609    0.45E-04    0.99E-04    0.10E-06
   0     10    10.239    27.747    0.40E-04    0.93E-04    0.97E-07
   1      9    10.239    20.408    0.15E-03    0.78E-05    0.15E-06
   1      9    10.239    13.425    0.13E-03    0.71E-05    0.14E-06
 Optimization of the real space projectors (new method)

 maximal supplied QI-value         = 24.76
 optimisation between [QCUT,QGAM] = [ 10.15, 20.30] = [ 28.85,115.39] Ry 
 Optimized for a Real-space Cutoff    1.38 Angstroem

   l    n(q)    QCUT    max X(q) W(low)/X(q) W(high)/X(q)  e(spline) 
   0      8    10.150    20.381    0.22E-03    0.32E-03    0.29E-06
   0      8    10.150    15.268    0.23E-03    0.35E-03    0.30E-06
   1      8    10.150     5.964    0.46E-03    0.53E-03    0.21E-06
   1      8    10.150     5.382    0.38E-03    0.45E-03    0.19E-06
 Optimization of the real space projectors (new method)

 maximal supplied QI-value         = 25.13
 optimisation between [QCUT,QGAM] = [ 10.05, 20.36] = [ 28.30,116.06] Ry 
 Optimized for a Real-space Cutoff    1.30 Angstroem

   l    n(q)    QCUT    max X(q) W(low)/X(q) W(high)/X(q)  e(spline) 
   0      8    10.053   115.676    0.49E-03    0.72E-03    0.18E-06
   0      8    10.053    87.132    0.49E-03    0.71E-03    0.18E-06
   1      7    10.053     4.429    0.32E-03    0.31E-03    0.18E-06
   1      7    10.053     2.733    0.23E-03    0.19E-03    0.20E-06
 Optimization of the real space projectors (new method)

 maximal supplied QI-value         = 34.20
 optimisation between [QCUT,QGAM] = [  9.92, 20.18] = [ 27.55,114.04] Ry 
 Optimized for a Real-space Cutoff    1.26 Angstroem

   l    n(q)    QCUT    max X(q) W(low)/X(q) W(high)/X(q)  e(spline) 
   0      8     9.919    19.460    0.50E-03    0.23E-03    0.29E-06
   0      8     9.919    12.209    0.48E-03    0.23E-03    0.28E-06
   1      7     9.919     4.655    0.17E-03    0.75E-03    0.30E-06
  PAW_PBE Zn 06Sep2000                  :
 energy of atom  1       EATOM=-1748.8345
 kinetic energy error for atom=    0.0107 (will be added to EATOM!!)
  PAW_PBE Cu 22Jun2005                  :
 energy of atom  2       EATOM=-1390.9808
 kinetic energy error for atom=    0.0232 (will be added to EATOM!!)
  PAW_PBE O 08Apr2002                   :
 energy of atom  3       EATOM= -432.3788
 kinetic energy error for atom=    0.1156 (will be added to EATOM!!)
  PAW_PBE C 08Apr2002                   :
 energy of atom  4       EATOM= -147.1560
 kinetic energy error for atom=    0.0288 (will be added to EATOM!!)
  PAW_PBE H 15Jun2001                   :
 energy of atom  5       EATOM=  -12.4884
 kinetic energy error for atom=    0.0098 (will be added to EATOM!!)
 
 
 POSCAR: Zn Cu  O  C  H                          
  positions in cartesian coordinates
  No initial velocities read in
 exchange correlation table for  LEXCH =        8
   RHO(1)=    0.500       N(1)  =     2000
   RHO(2)=  100.500       N(2)  =     4000

 VTST: version 3.1, (03/28/14)

 CHAIN: initializing optimizer
 
 OPT: Using VASP Conjugate-Gradient optimizer
 CHAIN: Read ICHAIN            0
 
 POSCAR: Zn Cu  O  C  H                          
  positions in cartesian coordinates
  No initial velocities read in
 


--------------------------------------------------------------------------------------------------------


 ion  position               nearest neighbor table
   1  0.067  0.133  0.048-  27 2.59 111 2.59   5 2.59  91 2.59  18 2.59  23 2.59   2 2.93  92 2.93
                             6 2.93
   2  0.133  0.067  0.144-  28 2.59 112 2.59   6 2.59  19 2.59  92 2.59  24 2.59  20 2.77   3 2.79
                            25 2.79   1 2.93  23 2.93  18 2.93
   3  0.067  0.134  0.234-  29 2.59  25 2.59   7 2.59  20 2.59 113 2.59  93 2.59 117 2.62   4 2.70
                            94 2.72   6 2.78   2 2.79  92 2.79
   4  0.136  0.072  0.321- 117 2.55 120 2.55 119 2.56 116 2.56  26 2.60  94 2.60 114 2.62  21 2.64
                             3 2.70  25 2.70  20 2.76  22 2.85
   5  0.067  0.333  0.048-  91 2.59  30 2.59   1 2.59  96 2.59   8 2.59  27 2.59   6 2.93  97 2.93
                             9 2.93
   6  0.133  0.267  0.144-  31 2.59  92 2.59   9 2.59   2 2.59  28 2.59  97 2.59   3 2.78   7 2.79
                            29 2.83   5 2.93  27 2.93   1 2.93
   7  0.067  0.333  0.234-  32 2.59  29 2.59   3 2.59  10 2.59  98 2.59  93 2.59 117 2.62  11 2.70
                            99 2.72   6 2.79   9 2.79  97 2.79
   8  0.067  0.533  0.048-  33 2.59  96 2.59  13 2.59 101 2.59   5 2.59  30 2.59   9 2.93 102 2.93
                            14 2.93
   9  0.133  0.467  0.144-  97 2.59  34 2.59   6 2.59  14 2.59  31 2.59 102 2.59  10 2.77   7 2.79
                            32 2.79   8 2.93  30 2.93   5 2.93
  10  0.067  0.534  0.233-  35 2.58  32 2.59  98 2.59  15 2.59 103 2.59   7 2.59 104 2.74  11 2.76
                            14 2.77   9 2.77 102 2.77  16 2.80
  11  0.135  0.464  0.321- 117 2.55 122 2.55 123 2.56 118 2.56  99 2.59  36 2.59 104 2.62  16 2.63
                            32 2.70   7 2.70  10 2.76  12 2.87
  12  0.071  0.528  0.416- 118 2.55 123 2.55  37 2.56 100 2.56 105 2.67  17 2.74  16 2.87  11 2.87
                           104 2.93
  13  0.067  0.733  0.048- 101 2.59  38 2.59   8 2.59 106 2.59  18 2.59  33 2.59  14 2.93 107 2.93
                            19 2.93
  14  0.133  0.667  0.144-  39 2.59 102 2.59  19 2.59   9 2.59  34 2.59 107 2.59  35 2.76  10 2.77
                            15 2.83  13 2.93  33 2.93   8 2.93
  15  0.066  0.733  0.236- 103 2.57 108 2.57  35 2.59  40 2.59  10 2.59  20 2.59  21 2.75  16 2.75
                           109 2.82 107 2.82  14 2.83  19 2.83
  16  0.133  0.666  0.324- 109 2.57 104 2.58  41 2.59  21 2.59  36 2.60  11 2.63  15 2.75  37 2.80
                            10 2.80  35 2.80  12 2.87
  17  0.066  0.733  0.436- 127 2.08 110 2.63 105 2.63  42 2.65  37 2.66  22 2.74  12 2.74
  18  0.067  0.933  0.048- 106 2.59  23 2.59 111 2.59  13 2.59   1 2.59  38 2.59  19 2.93 112 2.93
                             2 2.93
  19  0.133  0.867  0.144- 107 2.59  24 2.59  14 2.59   2 2.59  39 2.59 112 2.59  40 2.76  20 2.76
                            15 2.83  18 2.93  38 2.93  13 2.93
  20  0.067  0.933  0.233-  40 2.58  25 2.59 113 2.59  15 2.59 108 2.59   3 2.59 114 2.74   4 2.76
                            19 2.76   2 2.77 112 2.77  21 2.80
  21  0.133  0.867  0.324- 109 2.57 114 2.59  41 2.59  16 2.59  26 2.60   4 2.64  15 2.75  42 2.80
                            40 2.80  20 2.80  22 2.83
  22  0.071  0.942  0.414- 116 2.55 119 2.55  42 2.56 115 2.57 110 2.68  17 2.74  21 2.83   4 2.85
                           114 2.89
  23  0.267  0.133  0.048-  48 2.59  18 2.59  27 2.59  38 2.59  43 2.59   1 2.59  24 2.93   2 2.93
                            28 2.93
  24  0.333  0.067  0.144-  49 2.59  19 2.59  44 2.59  28 2.59  39 2.59   2 2.59  45 2.76  40 2.77
                            25 2.79  23 2.93  43 2.93  38 2.93
  25  0.267  0.134  0.234-  50 2.59  45 2.59   3 2.59  29 2.59  20 2.59  40 2.59 120 2.62   4 2.70
                            26 2.71  28 2.79   2 2.79  24 2.79
  26  0.334  0.068  0.320-  51 2.57 120 2.57  46 2.59 119 2.59   4 2.60  41 2.60  21 2.60  25 2.71
                            45 2.73  40 2.74  47 2.85  42 2.88
  27  0.267  0.333  0.048-   1 2.59  52 2.59  23 2.59  30 2.59  48 2.59   5 2.59  28 2.93   6 2.93
                            31 2.93
  28  0.333  0.267  0.144-  53 2.59   2 2.59  31 2.59  49 2.59  24 2.59   6 2.59  50 2.78  25 2.79
                            29 2.83  27 2.93  48 2.93  23 2.93
  29  0.267  0.333  0.236-  50 2.58  54 2.58   3 2.59   7 2.59  25 2.59  32 2.59 117 2.60 120 2.60
                           122 2.60  28 2.83   6 2.83  31 2.83
  30  0.267  0.533  0.048-  56 2.59   5 2.59  33 2.59  27 2.59  52 2.59   8 2.59  31 2.93   9 2.93
                            34 2.93
  31  0.333  0.467  0.144-   6 2.59  57 2.59  28 2.59  53 2.59  34 2.59   9 2.59  54 2.78  32 2.79
                            29 2.83  30 2.93  52 2.93  27 2.93
  32  0.267  0.533  0.234-  58 2.59  54 2.59   7 2.59  10 2.59  35 2.59  29 2.59 122 2.62  11 2.70
                            36 2.71  31 2.79  34 2.79   9 2.79
  33  0.267  0.733  0.048-   8 2.59  61 2.59  30 2.59  38 2.59  56 2.59  13 2.59  34 2.93  14 2.93
                            39 2.93
  34  0.333  0.667  0.144-  62 2.59   9 2.59  39 2.59  57 2.59  31 2.59  14 2.59  58 2.76  35 2.77
                            32 2.79  33 2.93  56 2.93  30 2.93
  35  0.266  0.733  0.233-  10 2.58  15 2.59  32 2.59  40 2.59  63 2.59  58 2.60  36 2.74  41 2.75
                            14 2.76  34 2.77  39 2.77  16 2.80
  36  0.334  0.666  0.321-  59 2.57 122 2.57  64 2.59  11 2.59 123 2.59  41 2.60  16 2.60  32 2.71
                            58 2.73  35 2.74  60 2.85  37 2.88
  37  0.265  0.729  0.415-  12 2.56  60 2.58  65 2.61 123 2.62  17 2.66  42 2.67  16 2.80  36 2.88
                            41 2.90
  38  0.267  0.933  0.048-  13 2.59  43 2.59  33 2.59  23 2.59  18 2.59  61 2.59  39 2.93  19 2.93
                            24 2.93
  39  0.333  0.867  0.144-  14 2.59  44 2.59  34 2.59  62 2.59  24 2.59  19 2.59  63 2.76  40 2.77
                            35 2.77  38 2.93  61 2.93  33 2.93
  40  0.266  0.933  0.233-  20 2.58  15 2.59  35 2.59  25 2.59  63 2.59  45 2.60  26 2.74  41 2.75
                            19 2.76  24 2.77  39 2.77  21 2.80
  41  0.333  0.867  0.321-  21 2.59  64 2.59  46 2.59  16 2.59  36 2.60  26 2.60  63 2.75  35 2.75
                            40 2.75  65 2.89  42 2.89  37 2.90
  42  0.265  0.935  0.415-  22 2.56  47 2.58  65 2.61 119 2.62  17 2.65  37 2.67  21 2.80  26 2.88
                            41 2.89
  43  0.467  0.133  0.048-  71 2.59  38 2.59  48 2.59  66 2.59  61 2.59  23 2.59  44 2.93  24 2.93
                            49 2.93
  44  0.533  0.067  0.144-  39 2.59  72 2.59  24 2.59  62 2.59  49 2.59  67 2.59  63 2.76  45 2.76
                            68 2.76  43 2.93  66 2.93  61 2.93
  45  0.466  0.133  0.233-  25 2.59  50 2.59  63 2.59  68 2.59  40 2.60  73 2.60  26 2.73  51 2.73
                            46 2.75  24 2.76  49 2.76  44 2.76
  46  0.534  0.067  0.321-  69 2.58  64 2.58  74 2.59  26 2.59  51 2.59  41 2.59  68 2.74  63 2.75
                            45 2.75  65 2.91  70 2.92  47 2.92
  47  0.462  0.137  0.414- 119 2.55 124 2.55  75 2.57  42 2.58  65 2.67  70 2.68  26 2.85  51 2.85
                            46 2.92
  48  0.467  0.333  0.048-  23 2.59  76 2.59  43 2.59  71 2.59  52 2.59  27 2.59  49 2.93  28 2.93
                            53 2.93
  49  0.533  0.267  0.144-  24 2.59  77 2.59  53 2.59  28 2.59  44 2.59  72 2.59  73 2.76  45 2.76
                            50 2.79  48 2.93  71 2.93  43 2.93
  50  0.466  0.333  0.234-  54 2.58  29 2.58  25 2.59  45 2.59  78 2.59  73 2.60 120 2.62  55 2.70
                            51 2.71  28 2.78  53 2.79  49 2.79
  51  0.533  0.266  0.321-  26 2.57 120 2.57  46 2.59 124 2.59  55 2.59  74 2.60  79 2.60  50 2.71
                            45 2.73  73 2.75  47 2.85  75 2.90
  52  0.467  0.533  0.048-  81 2.59  27 2.59  56 2.59  76 2.59  48 2.59  30 2.59  53 2.93  31 2.93
                            57 2.93
  53  0.533  0.467  0.144-  28 2.59  82 2.59  49 2.59  31 2.59  57 2.59  77 2.59  78 2.78  50 2.79
                            54 2.79  52 2.93  76 2.93  48 2.93
  54  0.466  0.533  0.234-  50 2.58  29 2.58  32 2.59  58 2.59  78 2.59  83 2.60 122 2.63  55 2.70
                            59 2.72  31 2.78  53 2.79  57 2.79
  55  0.529  0.464  0.321- 120 2.54 122 2.55 125 2.57 124 2.57  59 2.59  51 2.59  84 2.64  79 2.64
                            54 2.70  50 2.70  78 2.75  80 2.85
  56  0.467  0.733  0.048-  30 2.59  86 2.59  52 2.59  81 2.59  61 2.59  33 2.59  57 2.93  34 2.93
                            62 2.93
  57  0.533  0.667  0.144-  31 2.59  87 2.59  62 2.59  34 2.59  53 2.59  82 2.59  58 2.76  83 2.77
                            54 2.79  56 2.93  81 2.93  52 2.93
  58  0.466  0.733  0.233-  32 2.59  54 2.59  63 2.59  88 2.59  35 2.60  83 2.60  36 2.73  59 2.73
                            64 2.75  34 2.76  57 2.76  62 2.77
  59  0.532  0.666  0.321-  36 2.57 122 2.57  64 2.59  55 2.59 125 2.59  89 2.60  84 2.60  54 2.72
                            58 2.73  83 2.75  60 2.85  85 2.90
  60  0.462  0.724  0.414- 125 2.54 123 2.55  85 2.57  37 2.58  65 2.67  90 2.68  36 2.85  59 2.85
                            64 2.93
  61  0.467  0.933  0.048-  66 2.59  33 2.59  86 2.59  43 2.59  56 2.59  38 2.59  62 2.93  39 2.93
                            44 2.93
  62  0.533  0.867  0.144-  34 2.59  67 2.59  57 2.59  39 2.59  44 2.59  87 2.59  63 2.76  88 2.77
                            58 2.77  61 2.93  86 2.93  56 2.93
  63  0.466  0.933  0.233-  40 2.59  58 2.59  35 2.59  45 2.59  88 2.60  68 2.60  64 2.74  46 2.75
                            41 2.75  39 2.76  62 2.76  44 2.76
  64  0.534  0.867  0.321-  69 2.58  46 2.58  89 2.58  41 2.59  59 2.59  36 2.59  88 2.74  63 2.74
                            58 2.75  65 2.90  90 2.92  60 2.93
  65  0.465  0.932  0.416-  90 2.60  70 2.60  42 2.61  37 2.61  47 2.67  60 2.67  41 2.89  64 2.90
                            46 2.91
  66  0.667  0.133  0.048-  61 2.59  96 2.59  71 2.59  43 2.59  86 2.59  91 2.59  67 2.93  44 2.93
                            72 2.93
  67  0.733  0.067  0.144-  97 2.59  62 2.59  92 2.59  72 2.59  87 2.59  44 2.59  88 2.76  68 2.76
                            93 2.77  66 2.93  91 2.93  86 2.93
  68  0.667  0.134  0.233-  93 2.59  73 2.59  45 2.59  98 2.59  88 2.60  63 2.60  46 2.74  69 2.74
                            74 2.76  72 2.76  44 2.76  67 2.76
  69  0.733  0.067  0.321-  46 2.58  64 2.58  94 2.58  99 2.59  89 2.59  74 2.59  93 2.74  88 2.74
                            68 2.74  70 2.92  90 2.92  95 2.96
  70  0.667  0.133  0.417-  90 2.60  65 2.60  75 2.61 100 2.61  47 2.68  95 2.68  74 2.90  69 2.92
                            46 2.92
  71  0.667  0.333  0.048-  43 2.59 101 2.59  66 2.59  48 2.59  76 2.59  96 2.59  72 2.93  49 2.93
                            77 2.93
  72  0.733  0.267  0.144- 102 2.59  44 2.59  77 2.59  97 2.59  67 2.59  49 2.59  73 2.76  68 2.76
                            98 2.77  71 2.93  96 2.93  66 2.93
  73  0.667  0.334  0.233-  78 2.58  98 2.59  68 2.59 103 2.60  50 2.60  45 2.60  51 2.75  79 2.75
                            77 2.75  72 2.76  49 2.76  74 2.77
  74  0.733  0.267  0.322-  46 2.59  69 2.59  79 2.59  51 2.60 104 2.60  99 2.60  68 2.76  98 2.76
                            73 2.77  70 2.90  75 2.91 100 2.94
  75  0.663  0.333  0.416-  80 2.56  47 2.57 124 2.61  70 2.61 105 2.62 100 2.69  51 2.90  79 2.90
                            74 2.91
  76  0.667  0.533  0.048-  48 2.59 106 2.59  81 2.59  52 2.59  71 2.59 101 2.59  77 2.93  53 2.93
                            82 2.93
  77  0.733  0.467  0.144-  49 2.59 107 2.59  72 2.59 102 2.59  82 2.59  53 2.59  73 2.75  78 2.78
                           103 2.78  76 2.93 101 2.93  71 2.93
  78  0.667  0.533  0.234-  83 2.58  73 2.58 108 2.59  54 2.59  50 2.59 103 2.59  79 2.74  84 2.74
                            55 2.75  82 2.78  53 2.78  77 2.78
  79  0.733  0.467  0.321-  84 2.59  74 2.59  51 2.60 104 2.60 109 2.61  55 2.64  78 2.74 103 2.74
                            73 2.75  80 2.90  75 2.90 105 2.93
  80  0.657  0.528  0.415- 124 2.55 125 2.55  75 2.56  85 2.56 110 2.70 105 2.70  55 2.85  84 2.90
                            79 2.90
  81  0.667  0.733  0.048-  52 2.59 111 2.59  76 2.59  56 2.59  86 2.59 106 2.59  82 2.93  57 2.93
                            87 2.93
  82  0.733  0.667  0.144- 112 2.59  53 2.59  87 2.59 107 2.59  77 2.59  57 2.59  83 2.76  78 2.78
                           108 2.78  81 2.93 106 2.93  76 2.93
  83  0.667  0.733  0.233-  78 2.58 113 2.59  88 2.59 108 2.60  58 2.60  54 2.60  59 2.75  84 2.75
                            82 2.76  87 2.76  57 2.77  89 2.77
  84  0.733  0.667  0.321-  79 2.59  89 2.59 114 2.60  59 2.60 109 2.61  55 2.64  78 2.74 108 2.75
                            83 2.75  85 2.90  80 2.90 110 2.92
  85  0.663  0.729  0.416-  80 2.56  60 2.57 125 2.61  90 2.61 110 2.62 115 2.69  84 2.90  59 2.90
                            89 2.91
  86  0.667  0.933  0.048-  56 2.59  91 2.59  61 2.59  81 2.59  66 2.59 111 2.59  87 2.93  62 2.93
                            67 2.93
  87  0.733  0.867  0.144-  57 2.59  92 2.59  82 2.59 112 2.59  67 2.59  62 2.59  88 2.76  83 2.76
                           113 2.77  86 2.93 111 2.93  81 2.93
  88  0.667  0.933  0.233-  93 2.59  83 2.59 113 2.59  58 2.59  68 2.60  63 2.60  64 2.74  69 2.74
                            89 2.76  87 2.76  67 2.76  62 2.77
  89  0.733  0.867  0.322-  64 2.58  69 2.59  84 2.59  59 2.60  94 2.60 114 2.60  88 2.76 113 2.77
                            83 2.77  90 2.89  85 2.91 115 2.93
  90  0.666  0.933  0.417-  70 2.60  65 2.60  85 2.61 115 2.61  60 2.68  95 2.68  89 2.89  64 2.92
                            69 2.92
  91  0.867  0.133  0.048-   5 2.59  86 2.59  96 2.59   1 2.59 111 2.59  66 2.59  92 2.93  67 2.93
                            97 2.93
  92  0.933  0.067  0.144-  87 2.59   6 2.59  67 2.59  97 2.59 112 2.59   2 2.59  93 2.77 113 2.77
                             3 2.79  91 2.93   1 2.93 111 2.93
  93  0.867  0.133  0.233-  68 2.59  88 2.59   7 2.59   3 2.59  98 2.59 113 2.60  94 2.73  99 2.73
                            69 2.74  97 2.77  67 2.77  92 2.77
  94  0.933  0.068  0.321-  99 2.56 117 2.57 116 2.58  69 2.58 114 2.60   4 2.60  89 2.60   3 2.72
                            93 2.73 113 2.74  95 2.88 115 2.91
  95  0.876  0.138  0.416- 118 2.54 116 2.54 115 2.56 100 2.57  70 2.68  90 2.68  94 2.88  99 2.88
                            69 2.96
  96  0.867  0.333  0.048-   8 2.59  66 2.59  91 2.59   5 2.59 101 2.59  71 2.59  97 2.93  72 2.93
                           102 2.93
  97  0.933  0.267  0.144-   9 2.59  67 2.59 102 2.59  72 2.59  92 2.59   6 2.59  93 2.77  98 2.77
                             7 2.79  96 2.93   5 2.93  91 2.93
  98  0.867  0.334  0.233-  10 2.59  73 2.59   7 2.59  68 2.59  93 2.59 103 2.59 104 2.73  99 2.75
                            74 2.76 102 2.76  97 2.77  72 2.77
  99  0.933  0.266  0.321-  94 2.56 117 2.57 118 2.58  69 2.59  11 2.59 104 2.60  74 2.60   7 2.72
                            93 2.73  98 2.75  95 2.88 100 2.91
 100  0.871  0.333  0.417-  12 2.56  95 2.57 105 2.61 118 2.61  70 2.61  75 2.69  99 2.91 104 2.93
                            74 2.94
 101  0.867  0.533  0.048-  13 2.59  71 2.59 106 2.59   8 2.59  96 2.59  76 2.59 102 2.93  77 2.93
                           107 2.93
 102  0.933  0.467  0.144-  72 2.59  14 2.59  97 2.59  77 2.59 107 2.59   9 2.59  98 2.76  10 2.77
                           103 2.78 101 2.93   8 2.93  96 2.93
 103  0.867  0.535  0.234- 108 2.57  15 2.57  10 2.59  78 2.59  98 2.59  73 2.60 104 2.74  79 2.74
                           107 2.77 102 2.78  77 2.78 109 2.88
 104  0.934  0.467  0.321-  16 2.58  74 2.60  99 2.60 109 2.60  79 2.60  11 2.62  98 2.73  10 2.74
                           103 2.74 105 2.93  12 2.93 100 2.93
 105  0.867  0.533  0.417- 110 2.60 100 2.61  75 2.62  17 2.63  12 2.67  80 2.70 109 2.79 104 2.93
                            79 2.93
 106  0.867  0.733  0.048-  18 2.59  76 2.59 101 2.59  13 2.59 111 2.59  81 2.59 107 2.93  82 2.93
                           112 2.93
 107  0.933  0.667  0.144-  19 2.59  77 2.59 112 2.59  82 2.59 102 2.59  14 2.59 103 2.77 108 2.77
                            15 2.82 106 2.93  13 2.93 101 2.93
 108  0.867  0.733  0.234- 103 2.57  15 2.57  78 2.59  20 2.59 113 2.59  83 2.60 114 2.74  84 2.75
                           107 2.77 112 2.78  82 2.78 109 2.88
 109  0.935  0.668  0.328-  21 2.57  16 2.57 104 2.60 114 2.60  79 2.61  84 2.61 110 2.79 105 2.79
                            15 2.82 108 2.88 103 2.88
 110  0.867  0.734  0.417- 105 2.60 115 2.61  85 2.62  17 2.63  22 2.68  80 2.70 109 2.79  84 2.92
                           114 2.93
 111  0.867  0.933  0.048-   1 2.59  81 2.59  18 2.59  91 2.59 106 2.59  86 2.59 112 2.93  87 2.93
                            92 2.93
 112  0.933  0.867  0.144-  82 2.59   2 2.59 107 2.59  87 2.59  92 2.59  19 2.59 113 2.76  20 2.77
                           108 2.78 111 2.93  18 2.93 106 2.93
 113  0.867  0.933  0.233-  20 2.59  83 2.59  88 2.59   3 2.59 108 2.59  93 2.60 114 2.74  94 2.74
                           112 2.76  89 2.77  92 2.77  87 2.77
 114  0.934  0.868  0.321-  21 2.59  94 2.60  89 2.60  84 2.60 109 2.60   4 2.62 113 2.74  20 2.74
                           108 2.74  22 2.89 115 2.92 110 2.93
 115  0.870  0.937  0.417-  95 2.56  22 2.57 116 2.61 110 2.61  90 2.61  85 2.69  94 2.91 114 2.92
                            89 2.93
 116  0.069  0.136  0.400- 118 2.54  95 2.54  22 2.55 121 2.56   4 2.56 119 2.56  94 2.58 115 2.61
                           117 2.63
 117  0.132  0.266  0.317- 121 2.54   4 2.55  11 2.55  99 2.57  94 2.57  29 2.60 122 2.62 120 2.62
                             7 2.62   3 2.62 118 2.63 116 2.63
 118  0.069  0.332  0.401- 116 2.54  95 2.54  12 2.55 121 2.56  11 2.56 123 2.56  99 2.58 100 2.61
                           117 2.63
 119  0.267  0.137  0.400- 124 2.53  47 2.55 121 2.55  22 2.55   4 2.56 116 2.56  26 2.59  42 2.62
                           120 2.63
 120  0.334  0.266  0.317- 121 2.54  55 2.54   4 2.55  51 2.57  26 2.57  29 2.60 122 2.62 117 2.62
                            50 2.62  25 2.62 119 2.63 124 2.63
 121  0.266  0.333  0.395- 120 2.54 117 2.54 122 2.54 119 2.55 123 2.55 124 2.56 125 2.56 118 2.56
                           116 2.56
 122  0.334  0.468  0.317- 121 2.54  55 2.55  11 2.55  59 2.57  36 2.57  29 2.60 120 2.62 117 2.62
                            32 2.62 123 2.63  54 2.63 125 2.63
 123  0.267  0.530  0.401- 125 2.53  60 2.55 121 2.55  12 2.55  11 2.56 118 2.56  36 2.59  37 2.62
                           122 2.63
 124  0.463  0.332  0.401- 119 2.53  47 2.55  80 2.55 121 2.56 125 2.56  55 2.57  51 2.59  75 2.61
                           120 2.63
 125  0.463  0.530  0.401- 123 2.53  60 2.54  80 2.55 121 2.56 124 2.56  55 2.57  59 2.59  85 2.61
                           122 2.63
 126  0.068  0.652  0.541- 127 1.21
 127  0.067  0.730  0.515- 128 1.13 126 1.21  17 2.08
 128  0.067  0.807  0.535- 127 1.13
 

IMPORTANT INFORMATION: All symmetrisations will be switched off!
NOSYMM: (Re-)initialisation of all symmetry stuff for point group C_1.

 
 
 KPOINTS: KPOINTS created by Atomic Simulation Env

Automatic generation of k-mesh.
Space group operators:
 irot       det(A)        alpha          n_x          n_y          n_z        tau_x        tau_y        tau_z
    1     1.000000     0.000000     1.000000     0.000000     0.000000     0.000000     0.000000     0.000000
 
 Subroutine IBZKPT returns following result:
 ===========================================
 
 Found      4 irreducible k-points:
 
 Following reciprocal coordinates:
            Coordinates               Weight
  0.000000  0.000000  0.000000      1.000000
  0.500000 -0.000000 -0.000000      1.000000
 -0.000000  0.500000 -0.000000      1.000000
  0.500000  0.500000 -0.000000      1.000000
 
 Following cartesian coordinates:
            Coordinates               Weight
  0.000000  0.000000  0.000000      1.000000
  0.038616  0.022295 -0.000000      1.000000
  0.000000  0.044590 -0.000000      1.000000
  0.038616  0.066885 -0.000000      1.000000
 


--------------------------------------------------------------------------------------------------------




 Dimension of arrays:
   k-points           NKPTS =      4   k-points in BZ     NKDIM =      4   number of bands    NBANDS=    964
   number of dos      NEDOS =    301   number of ions     NIONS =    128
   non local maximal  LDIM  =      6   non local SUM 2l+1 LMDIM =     18
   total plane-waves  NPLWV = 524288
   max r-space proj   IRMAX =   2215   max aug-charges    IRDMAX=   4307
   dimension x,y,z NGX =    64 NGY =   64 NGZ =  128
   dimension x,y,z NGXF=   128 NGYF=  128 NGZF=  256
   support grid    NGXF=   128 NGYF=  128 NGZF=  256
   ions per type =             115  10   1   1   1
   NGX,Y,Z   is equivalent  to a cutoff of   8.22,  8.22,  8.12 a.u.
   NGXF,Y,Z  is equivalent  to a cutoff of  16.43, 16.43, 16.24 a.u.

 SYSTEM =  unknown system                          
 POSCAR =  Zn Cu  O  C  H                          

 Startparameter for this run:
   NWRITE =      2    write-flag & timer
   PREC   = normal    normal or accurate (medium, high low for compatibility)
   ISTART =      1    job   : 0-new  1-cont  2-samecut
   ICHARG =      1    charge: 1-file 2-atom 10-const
   ISPIN  =      2    spin polarized calculation?
   LNONCOLLINEAR =      F non collinear calculations
   LSORBIT =      F    spin-orbit coupling
   INIWAV =      1    electr: 0-lowe 1-rand  2-diag
   LASPH  =      F    aspherical Exc in radial PAW
   METAGGA=      F    non-selfconsistent MetaGGA calc.

 Electronic Relaxation 1
   ENCUT  =  400.0 eV  29.40 Ry    5.42 a.u.  21.11 21.11 42.73*2*pi/ulx,y,z
   ENINI  =  400.0     initial cutoff
   ENAUG  =  644.9 eV  augmentation charge cutoff
   NELM   =     90;   NELMIN=  4; NELMDL=  0     # of ELM steps 
   EDIFF  = 0.1E-04   stopping-criterion for ELM
   LREAL  =      T    real-space projection
   NLSPLINE    = F    spline interpolate recip. space projectors
   LCOMPAT=      F    compatible to vasp.4.4
   GGA_COMPAT  = T    GGA compatible to vasp.4.4-vasp.4.6
   LMAXPAW     = -100 max onsite density
   LMAXMIX     =    2 max onsite mixed and CHGCAR
   VOSKOWN=      0    Vosko Wilk Nusair interpolation
   ROPT   =   -0.00050  -0.00050  -0.00050  -0.00050
   ROPT   =   -0.00050
 Ionic relaxation
   EDIFFG = -.2E-01   stopping-criterion for IOM
   NSW    =    500    number of steps for IOM
   NBLOCK =      1;   KBLOCK =    500    inner block; outer block 
   IBRION =      2    ionic relax: 0-MD 1-quasi-New 2-CG
   NFREE  =      1    steps in history (QN), initial steepest desc. (CG)
   ISIF   =      2    stress and relaxation
   IWAVPR =     11    prediction:  0-non 1-charg 2-wave 3-comb
   ISYM   =      0    0-nonsym 1-usesym 2-fastsym
   LCORR  =      T    Harris-Foulkes like correction to forces

   POTIM  = 0.5000    time-step for ionic-motion
   TEIN   =    0.0    initial temperature
   TEBEG  =    0.0;   TEEND  =   0.0 temperature during run
   SMASS  =  -3.00    Nose mass-parameter (am)
   estimated Nose-frequenzy (Omega)   =  0.10E-29 period in steps =****** mass=  -0.383E-26a.u.
   SCALEE = 1.0000    scale energy and forces
   NPACO  =    256;   APACO  = 16.0  distance and # of slots for P.C.
   PSTRESS=    0.0 pullay stress

  Mass of Ions in am
   POMASS =  65.39 63.55 16.00 12.01  1.00
  Ionic Valenz
   ZVAL   =  12.00 11.00  6.00  4.00  1.00
  Atomic Wigner-Seitz radii
   RWIGS  =  -1.00 -1.00 -1.00 -1.00 -1.00
  virtual crystal weights 
   VCA    =   1.00  1.00  1.00  1.00  1.00
   NELECT =    1501.0000    total number of electrons
   NUPDOWN=      -1.0000    fix difference up-down

 DOS related values:
   EMIN   =  10.00;   EMAX   =-10.00  energy-range for DOS
   EFERMI =   0.00
   ISMEAR =     0;   SIGMA  =   0.05  broadening in eV -4-tet -1-fermi 0-gaus

 Electronic relaxation 2 (details)
   IALGO  =     68    algorithm
   LDIAG  =      T    sub-space diagonalisation (order eigenvalues)
   LSUBROT=      F    optimize rotation matrix (better conditioning)
   TURBO    =      0    0=normal 1=particle mesh
   IRESTART =      0    0=no restart 2=restart with 2 vectors
   NREBOOT  =      0    no. of reboots
   NMIN     =      0    reboot dimension
   EREF     =   0.00    reference energy to select bands
   IMIX   =      4    mixing-type and parameters
     AMIX     =   0.40;   BMIX     =  1.00
     AMIX_MAG =   1.60;   BMIX_MAG =  1.00
     AMIN     =   0.10
     WC   =   100.;   INIMIX=   1;  MIXPRE=   1;  MAXMIX= -45

 Intra band minimization:
   WEIMIN = 0.0010     energy-eigenvalue tresh-hold
   EBREAK =  0.26E-08  absolut break condition
   DEPER  =   0.30     relativ break condition  

   TIME   =   0.40     timestep for ELM

  volume/ion in A,a.u.               =      29.72       200.55
  Fermi-wavevector in a.u.,A,eV,Ry     =   1.200762  2.269111 19.617270  1.441829
  Thomas-Fermi vector in A             =   2.336589
 
 Write flags
   LWAVE        =      F    write WAVECAR
   LDOWNSAMPLE  =      F    k-point downsampling of WAVECAR
   LCHARG       =      F    write CHGCAR
   LVTOT        =      F    write LOCPOT, total local potential
   LVHAR        =      F    write LOCPOT, Hartree potential only
   LELF         =      F    write electronic localiz. function (ELF)
   LORBIT       =      0    0 simple, 1 ext, 2 COOP (PROOUT), +10 PAW based schemes


 Dipole corrections
   LMONO  =      F    monopole corrections only (constant potential shift)
   LDIPOL =      F    correct potential (dipole corrections)
   IDIPOL =      3    1-x, 2-y, 3-z, 4-all directions 
   EPSILON=  1.0000000 bulk dielectric constant

 Exchange correlation treatment:
   GGA     =    PE    GGA type
   LEXCH   =     8    internal setting for exchange type
   VOSKOWN=      0    Vosko Wilk Nusair interpolation
   LHFCALC =     F    Hartree Fock is set to
   LHFONE  =     F    Hartree Fock one center treatment
   AEXX    =    0.0000 exact exchange contribution

 Linear response parameters
   LEPSILON=     F    determine dielectric tensor
   LRPA    =     F    only Hartree local field effects (RPA)
   LNABLA  =     F    use nabla operator in PAW spheres
   LVEL    =     F    velocity operator in full k-point grid
   LINTERFAST=   F  fast interpolation
   KINTER  =     0    interpolate to denser k-point grid
   CSHIFT  =0.1000    complex shift for real part using Kramers Kronig
   OMEGAMAX=  -1.0    maximum frequency
   DEG_THRESHOLD= 0.2000000E-02 threshold for treating states as degnerate
   RTIME   =   -0.100 relaxation time in fs
  (WPLASMAI=    0.000 imaginary part of plasma frequency in eV, 0.658/RTIME)
   DFIELD  = 0.0000000 0.0000000 0.0000000 field for delta impulse in time
 
 Orbital magnetization related:
   ORBITALMAG=     F  switch on orbital magnetization
   LCHIMAG   =     F  perturbation theory with respect to B field
   DQ        =  0.001000  dq finite difference perturbation B field
   LLRAUG    =     F  two centre corrections for induced B field



--------------------------------------------------------------------------------------------------------


 conjugate gradient relaxation of ions
   using selective dynamics as specified on POSCAR
   WARNING: If single coordinates had been selected the selection of coordinates
            is made according to the corresponding   d i r e c t   coordinates!
            Don't support selection of single cartesian coordinates -- sorry ...
  !
 charge density and potential will be updated during run
 spin polarized calculation
 RMM-DIIS sequential band-by-band and
  variant of blocked Davidson during initial phase
 perform sub-space diagonalisation
    before iterative eigenvector-optimisation
 modified Broyden-mixing scheme, WC =      100.0
 initial mixing is a Kerker type mixing with AMIX =  0.4000 and BMIX =      1.0000
 Hartree-type preconditioning will be used
 using additional bands          213
 real space projection scheme for non local part
 use partial core corrections
 calculate Harris-corrections to forces 
   (improved forces if not selfconsistent)
 use gradient corrections 
 use of overlap-Matrix (Vanderbilt PP)
 Gauss-broadening in eV      SIGMA  =   0.05


--------------------------------------------------------------------------------------------------------


  energy-cutoff  :      400.00
  volume of cell :     3803.95
      direct lattice vectors                 reciprocal lattice vectors
    12.947972000 -0.000019020  0.000000082     0.077232237  0.044590204 -0.000000001
    -6.474002469 11.213263171 -0.000000015     0.000000131  0.089180182 -0.000000000
     0.000000158  0.000000070 26.200000000    -0.000000000 -0.000000000  0.038167939

  length of vectors
    12.947972000 12.947972000 26.200000000     0.089180182  0.089180182  0.038167939


 
 old parameters found on file WAVECAR:
  energy-cutoff  :      400.00
  volume of cell :     3803.95
      direct lattice vectors                 reciprocal lattice vectors
    12.947972000 -0.000019020  0.000000082     0.077232237  0.044590204 -0.000000001
    -6.474002469 11.213263171 -0.000000015     0.000000131  0.089180182 -0.000000000
     0.000000158  0.000000070 26.200000000    -0.000000000 -0.000000000  0.038167939

  length of vectors

 
 k-points in units of 2pi/SCALE and weight: KPOINTS created by Atomic Simulation Env
   0.00000000  0.00000000  0.00000000       0.250
   0.03861612  0.02229510 -0.00000000       0.250
   0.00000007  0.04459009 -0.00000000       0.250
   0.03861618  0.06688519 -0.00000000       0.250
 
 k-points in reciprocal lattice and weights: KPOINTS created by Atomic Simulation Env
   0.00000000  0.00000000  0.00000000       0.250
   0.50000000 -0.00000000 -0.00000000       0.250
  -0.00000000  0.50000000 -0.00000000       0.250
   0.50000000  0.50000000 -0.00000000       0.250
 
 position of ions in fractional coordinates (direct lattice) 
   0.06666675  0.13333325  0.04813813
   0.13333325  0.06666675  0.14441440
   0.06703205  0.13365691  0.23415356
   0.13564899  0.07152547  0.32063710
   0.06666675  0.33333325  0.04813813
   0.13333325  0.26666675  0.14441440
   0.06701325  0.33349921  0.23416804
   0.06666675  0.53333325  0.04813813
   0.13333325  0.46666675  0.14441440
   0.06714827  0.53370887  0.23332590
   0.13541721  0.46425848  0.32083547
   0.07140489  0.52793944  0.41598092
   0.06666675  0.73333325  0.04813813
   0.13333325  0.66666675  0.14441440
   0.06620886  0.73308352  0.23588506
   0.13333069  0.66637411  0.32405969
   0.06632245  0.73321912  0.43614151
   0.06666675  0.93333325  0.04813813
   0.13333325  0.86666675  0.14441440
   0.06710166  0.93341263  0.23325171
   0.13347335  0.86679217  0.32384225
   0.07128594  0.94246944  0.41432854
   0.26666675  0.13333325  0.04813813
   0.33333325  0.06666675  0.14441440
   0.26675462  0.13351742  0.23423973
   0.33422227  0.06773214  0.32045995
   0.26666675  0.33333325  0.04813813
   0.33333325  0.26666675  0.14441440
   0.26666721  0.33330219  0.23624478
   0.26666675  0.53333325  0.04813813
   0.33333325  0.46666675  0.14441440
   0.26669116  0.53331329  0.23431643
   0.26666675  0.73333325  0.04813813
   0.33333325  0.66666675  0.14441440
   0.26582895  0.73285438  0.23325635
   0.33399489  0.66639155  0.32058529
   0.26504280  0.72930622  0.41491568
   0.26666675  0.93333325  0.04813813
   0.33333325  0.86666675  0.14441440
   0.26590177  0.93296302  0.23312319
   0.33327626  0.86663340  0.32110465
   0.26505888  0.93517580  0.41468391
   0.46666675  0.13333325  0.04813813
   0.53333325  0.06666675  0.14441440
   0.46641898  0.13341749  0.23307174
   0.53352434  0.06660469  0.32085363
   0.46169329  0.13695794  0.41436234
   0.46666675  0.33333325  0.04813813
   0.53333325  0.26666675  0.14441440
   0.46621940  0.33338974  0.23415385
   0.53255111  0.26619266  0.32059009
   0.46666675  0.53333325  0.04813813
   0.53333325  0.46666675  0.14441440
   0.46620450  0.53288187  0.23413985
   0.52859034  0.46441419  0.32056573
   0.46666675  0.73333325  0.04813813
   0.53333325  0.66666675  0.14441440
   0.46640557  0.73301748  0.23317001
   0.53220847  0.66630132  0.32065982
   0.46167890  0.72419498  0.41449545
   0.46666675  0.93333325  0.04813813
   0.53333325  0.86666675  0.14441440
   0.46607937  0.93302832  0.23303221
   0.53351016  0.86701822  0.32086336
   0.46528847  0.93238609  0.41583271
   0.66666675  0.13333325  0.04813813
   0.73333325  0.06666675  0.14441440
   0.66684407  0.13372270  0.23312578
   0.73295473  0.06655300  0.32091940
   0.66658087  0.13343719  0.41667800
   0.66666675  0.33333325  0.04813813
   0.73333325  0.26666675  0.14441440
   0.66704507  0.33400532  0.23290999
   0.73318297  0.26661938  0.32165332
   0.66267410  0.33315132  0.41604004
   0.66666675  0.53333325  0.04813813
   0.73333325  0.46666675  0.14441440
   0.66662130  0.53343174  0.23368510
   0.73337276  0.46689176  0.32115468
   0.65654466  0.52797204  0.41474365
   0.66666675  0.73333325  0.04813813
   0.73333325  0.66666675  0.14441440
   0.66704901  0.73318476  0.23312403
   0.73335224  0.66666320  0.32143255
   0.66260603  0.72894949  0.41619354
   0.66666675  0.93333325  0.04813813
   0.73333325  0.86666675  0.14441440
   0.66685629  0.93324970  0.23315849
   0.73297219  0.86668736  0.32195623
   0.66645121  0.93271111  0.41661690
   0.86666675  0.13333325  0.04813813
   0.93333325  0.06666675  0.14441440
   0.86664997  0.13347430  0.23338026
   0.93317125  0.06776433  0.32079179
   0.87570366  0.13758493  0.41607069
   0.86666675  0.33333325  0.04813813
   0.93333325  0.26666675  0.14441440
   0.86709540  0.33402573  0.23335331
   0.93333790  0.26571084  0.32087874
   0.87053927  0.33309478  0.41709253
   0.86666675  0.53333325  0.04813813
   0.93333325  0.46666675  0.14441440
   0.86748207  0.53455576  0.23359816
   0.93414751  0.46666564  0.32094453
   0.86731490  0.53280360  0.41711810
   0.86666675  0.73333325  0.04813813
   0.93333325  0.66666675  0.14441440
   0.86735190  0.73289027  0.23374200
   0.93541014  0.66772330  0.32762147
   0.86698694  0.73378326  0.41723413
   0.86666675  0.93333325  0.04813813
   0.93333325  0.86666675  0.14441440
   0.86704083  0.93307724  0.23335928
   0.93416631  0.86765563  0.32104964
   0.87046166  0.93694334  0.41688705
   0.06866852  0.13606724  0.40048030
   0.13169692  0.26597498  0.31671696
   0.06865752  0.33211658  0.40058290
   0.26709594  0.13684085  0.40040888
   0.33415506  0.26609953  0.31680527
   0.26618524  0.33287924  0.39454990
   0.33398188  0.46811846  0.31684054
   0.26695634  0.52982053  0.40053154
   0.46294084  0.33224963  0.40067225
   0.46298540  0.53031353  0.40071410
   0.06800749  0.65162384  0.54070820
   0.06719399  0.72972016  0.51542041
   0.06703886  0.80708164  0.53532487
 
 position of ions in cartesian coordinates  (Angst):
  -0.00000054  1.49509952  1.26121906
   1.29479446  0.74754929  3.78365718
   0.00263392  1.49872890  6.13482328
   1.29332331  0.80203139  8.40069206
  -1.29480104  3.73775215  1.26121906
  -0.00000604  2.99020192  3.78365718
  -1.29138894  3.73961315  6.13520258
  -2.58960153  5.98040479  1.26121906
  -1.29480653  5.23285456  3.78365717
  -2.58579862  5.98461674  6.11313848
  -1.25223227  5.20585000  8.40588923
  -2.49333262  5.91992256 10.89870012
  -3.88440202  8.22305742  1.26121905
  -2.58960703  7.47550719  3.78365717
  -3.88871405  8.22025721  6.18018868
  -2.58774559  7.47222576  8.49036379
  -3.88812104  8.22177768 11.42690751
  -5.17920252 10.46571005  1.26121905
  -3.88440752  9.71815983  3.78365717
  -5.17408529 10.46660023  6.11119484
  -3.88340539  9.71956619  8.48466708
  -5.17854108 10.56815654 10.85540773
   2.58959386  1.49509571  1.26121908
   3.88438886  0.74754548  3.78365720
   2.58953922  1.49716093  6.13708104
   3.88900259  0.75949202  8.39605070
   1.29479336  3.73774835  1.26121907
   2.58958836  2.99019812  3.78365719
   1.29500039  3.73740015  6.18961314
  -0.00000713  5.98040098  1.26121907
   1.29478787  5.23285075  3.78365719
   0.00043812  5.98017720  6.13909052
  -1.29480762  8.22305362  1.26121907
  -0.00001263  7.47550339  3.78365719
  -1.30255519  8.21768398  6.11131634
   0.01033606  7.47241749  8.39933450
  -1.28976344  8.17789755 10.87079092
  -2.58960812 10.46570625  1.26121907
  -1.29481312  9.71815602  3.78365718
  -2.59711622 10.46155484  6.10782771
  -1.29533497  9.71778205  8.41294174
  -2.62235546 10.48636739 10.86471836
   5.17918826  1.49509191  1.26121909
   6.47398326  0.74754168  3.78365721
   5.17543470  1.49603661  6.10647969
   6.47685939  0.74684580  8.40636521
   5.09132588  1.53573662 10.85629345
   3.88438776  3.73774454  1.26121909
   5.17918276  2.99019432  3.78365721
   3.87822977  3.73837799  6.13483099
   5.17212501  2.98487829  8.39946037
   2.58958727  5.98039718  1.26121909
   3.88438227  5.23284695  3.78365721
   2.58652435  5.97533580  6.13446410
   3.83755438  5.20758852  8.39882217
   1.29478678  8.22304981  1.26121909
   2.58958177  7.47549958  3.78365720
   1.29344936  8.21950905  6.10905430
   2.57738404  7.47140191  8.40128735
   1.28936540  8.12058019 10.85978073
  -0.00001372 10.46570245  1.26121908
   1.29478128  9.71815222  3.78365720
  -0.00564496 10.46228323  6.10544393
   1.29479658  9.72209333  8.40662017
  -0.01172769 10.45508181 10.89481707
   7.76878266  1.49508810  1.26121911
   9.06357766  0.74753788  3.78365723
   7.76855734  1.49945519  6.10789554
   9.05941307  0.74626240  8.40808827
   7.76699787  1.49625364 10.91696375
   6.47398216  3.73774074  1.26121911
   7.76877716  2.99019051  3.78365723
   6.47452958  3.74527692  6.10224188
   7.76713807  2.98965935  8.42731715
   6.42346324  3.73570085 10.90024921
   5.17918167  5.98039337  1.26121910
   6.47397667  5.23284315  3.78365722
   5.17795549  5.98149786  6.12254963
   6.47303159  5.23536630  8.41425273
   5.08282974  5.92027693 10.86628361
   3.88438118  8.22304601  1.26121910
   5.17917617  7.47549578  3.78365722
   3.89029201  8.22138098  6.10784956
   5.17944514  7.47545597  8.42153281
   3.86018363  8.17388993 10.90427075
   2.58958068 10.46569864  1.26121910
   3.88437568  9.71814841  3.78365722
   2.59257571 10.46476186  6.10875255
   3.87956739  9.71837949  8.43525332
   2.59081763 10.45872250 10.91536284
  10.35837706  1.49508430  1.26121913
  11.65317206  0.74753407  3.78365725
  10.35724667  1.49666593  6.11456280
  11.64396882  0.75984156  8.40474509
  10.44786133  1.54275944 10.90105202
   9.06357656  3.73773694  1.26121912
  10.35837156  2.99018671  3.78365724
   9.06464359  3.74550192  6.11385670
  10.36462037  2.97946786  8.40702294
   9.11526166  3.73506292 10.92782437
   7.76877607  5.98038957  1.26121912
   9.06357107  5.23283934  3.78365724
   7.77141829  5.99409796  6.12027181
   9.07412139  5.23282684  8.40874674
   7.78059725  5.97445052 10.92849419
   6.47397558  8.22304220  1.26121912
   7.76877057  7.47549198  3.78365724
   6.48571478  8.21807495  6.12404053
   7.78882213  7.48733928  8.58368265
   6.47520811  8.22808835 10.93153418
   5.17917508 10.46569484  1.26121912
   6.47397008  9.71814461  3.78365723
   5.18567615 10.46282413  6.11401307
   6.47835457  9.72923320  8.41150067
   5.20493974 10.50617569 10.92244068
   0.00821845  1.52575653 10.49258393
  -0.01671459  2.98244498  8.29798449
  -1.26114783  3.72410930 10.49527206
   2.57244277  1.53442742 10.49071272
   2.60390140  2.98383773  8.30029816
   1.29149807  3.73265743 10.33720746
   1.29378798  5.24912921  8.30122226
   0.02648388  5.94101197 10.49392630
   3.84316014  3.72559375 10.49761297
   2.56147091  5.94653644 10.49870941
  -3.33805524  7.30682840 14.16655494
  -3.85418412  8.18254292 13.50401484
  -4.35703115  9.05001763 14.02551155
 


--------------------------------------------------------------------------------------------------------


 k-point  1 :   0.0000 0.0000 0.0000  plane waves:   69037
 k-point  2 :   0.5000-0.0000-0.0000  plane waves:   69130
 k-point  3 :  -0.0000 0.5000-0.0000  plane waves:   69130
 k-point  4 :   0.5000 0.5000-0.0000  plane waves:   69130

 maximum and minimum number of plane-waves per node :      8684     8594

 maximum number of plane-waves:     69130
 maximum index in each direction: 
   IXMAX=   21   IYMAX=   21   IZMAX=   42
   IXMIN=  -21   IYMIN=  -21   IZMIN=  -42


 real space projection operators:
  total allocation   :      27017.77 KBytes
  max/ min on nodes  :       3388.49       3367.56


 parallel 3D FFT for wavefunctions:
    minimum data exchange during FFTs selected (reduces bandwidth)
 parallel 3D FFT for charge:
    minimum data exchange during FFTs selected (reduces bandwidth)


 total amount of memory used by VASP MPI-rank0   340243. kBytes
=======================================================================

   base      :      30000. kBytes
   nonlr-proj:       8900. kBytes
   fftplans  :       6456. kBytes
   grid      :      18980. kBytes
   one-center:        497. kBytes
   wavefun   :     275410. kBytes
 
     INWAV:  cpu time   43.2885: real time   43.5365
 Broyden mixing: mesh for mixing (old mesh)
   NGX = 43   NGY = 43   NGZ = 85
  (NGX  =128   NGY  =128   NGZ  =256)
  gives a total of 157165 points

 initial charge density was supplied:
 number of electron    1501.0002387 magnetization     128.0000000
 keeping initial charge density in first step


--------------------------------------------------------------------------------------------------------


 Maximum index for non-local projection operator          285
 Maximum index for augmentation-charges          268 (set IRDMAX)


--------------------------------------------------------------------------------------------------------


 First call to EWALD:  gamma=   0.114
 Maximum number of real-space cells 4x 4x 2
 Maximum number of reciprocal cells 2x 2x 4

    FEWALD:  cpu time    0.0294: real time    0.0963


--------------------------------------- Iteration      1(   1)  ---------------------------------------


    POTLOK:  cpu time    0.5587: real time    0.7220
    SETDIJ:  cpu time    0.1262: real time    0.1668
     EDDAV:  cpu time   76.4942: real time   76.9596
       DOS:  cpu time    0.0121: real time    0.0123
    CHARGE:  cpu time    3.5269: real time    3.6381
    MIXING:  cpu time    0.0555: real time    0.1009
    --------------------------------------------
      LOOP:  cpu time   80.7746: real time   81.5999

 eigenvalue-minimisations  : 16336
 total energy-change (2. order) :-0.1480892E+03  (-0.1230297E+01)
 number of electron    1501.0002392 magnetization     117.5313778
 augmentation part      986.5464979 magnetization     113.5797824

 Broyden mixing:
  rms(total) = 0.76389E+01    rms(broyden)= 0.76388E+01
  rms(prec ) = 0.76401E+01
  weight for this iteration     100.00

 Free energy of the ion-electron system (eV)
  ---------------------------------------------------
  alpha Z        PSCENC =      6265.78094803
  Ewald energy   TEWEN  =    777136.47301198
  -Hartree energ DENC   =   -973862.33524092
  -exchange      EXHF   =         0.00000000
  -V(xc)+E(xc)   XCENC  =      7031.38065078
  PAW double counting   =    191102.97012949  -212656.15341121
  entropy T*S    EENTRO =        -0.03485293
  eigenvalues    EBANDS =    -10782.34973175
  atomic energy  EATOM  =    215616.17930637
  Solvation  Ediel_sol  =         0.00000000
  ---------------------------------------------------
  free energy    TOTEN  =      -148.08919016 eV

  energy without entropy =     -148.05433723  energy(sigma->0) =     -148.07176370


--------------------------------------------------------------------------------------------------------




--------------------------------------- Iteration      1(   2)  ---------------------------------------


    POTLOK:  cpu time    0.5761: real time    0.5831
    SETDIJ:  cpu time    0.0645: real time    0.0644
    EDDIAG:  cpu time   15.2000: real time   15.2999
  RMM-DIIS:  cpu time   27.3517: real time   27.4650
    ORTHCH:  cpu time    4.3716: real time    4.4794
       DOS:  cpu time    0.0118: real time    0.0118
    CHARGE:  cpu time    2.8213: real time    2.8279
    MIXING:  cpu time    0.0197: real time    0.0312
    --------------------------------------------
      LOOP:  cpu time   50.4158: real time   50.7626

 eigenvalue-minimisations  : 15495
 total energy-change (2. order) : 0.7157477E+02  (-0.1092350E+02)
 number of electron    1501.0002394 magnetization     111.1162580
 augmentation part      987.7125130 magnetization      83.9093289

 Broyden mixing:
  rms(total) = 0.33569E+01    rms(broyden)= 0.33569E+01
  rms(prec ) = 0.33711E+01
  weight for this iteration     100.00

 eigenvalues of (default mixing * dielectric matrix)
  average eigenvalue GAMMA=   0.7475
  0.7475

 Free energy of the ion-electron system (eV)
  ---------------------------------------------------
  alpha Z        PSCENC =      6265.78094803
  Ewald energy   TEWEN  =    777136.47301198
  -Hartree energ DENC   =   -973908.58463757
  -exchange      EXHF   =         0.00000000
  -V(xc)+E(xc)   XCENC  =      7077.74516100
  PAW double counting   =    191100.60466423  -212655.11215338
  entropy T*S    EENTRO =        -0.05598053
  eigenvalues    EBANDS =    -10709.54474143
  atomic energy  EATOM  =    215616.17930637
  Solvation  Ediel_sol  =         0.00000000
  ---------------------------------------------------
  free energy    TOTEN  =       -76.51442132 eV

  energy without entropy =      -76.45844079  energy(sigma->0) =      -76.48643105


--------------------------------------------------------------------------------------------------------




--------------------------------------- Iteration      1(   3)  ---------------------------------------


    POTLOK:  cpu time    0.5185: real time    0.5200
    SETDIJ:  cpu time    0.0637: real time    0.0637
    EDDIAG:  cpu time   13.6676: real time   13.6929
  RMM-DIIS:  cpu time   27.6109: real time   27.6727
    ORTHCH:  cpu time    4.5398: real time    4.5680
       DOS:  cpu time    0.0114: real time    0.0115
    CHARGE:  cpu time    3.5188: real time    3.5339
    MIXING:  cpu time    0.0164: real time    0.0165
    --------------------------------------------
      LOOP:  cpu time   49.9471: real time   50.0791

 eigenvalue-minimisations  : 15436
 total energy-change (2. order) :-0.6971647E+01  (-0.9882892E+00)
 number of electron    1501.0002387 magnetization     100.9271647
 augmentation part      986.7920717 magnetization      78.1381859

 Broyden mixing:
  rms(total) = 0.21690E+01    rms(broyden)= 0.21689E+01
  rms(prec ) = 0.21843E+01
  weight for this iteration     100.00

 eigenvalues of (default mixing * dielectric matrix)
  average eigenvalue GAMMA=   0.7819
  0.8773  0.6866

 Free energy of the ion-electron system (eV)
  ---------------------------------------------------
  alpha Z        PSCENC =      6265.78094803
  Ewald energy   TEWEN  =    777136.47301198
  -Hartree energ DENC   =   -974190.99087287
  -exchange      EXHF   =         0.00000000
  -V(xc)+E(xc)   XCENC  =      7076.85586688
  PAW double counting   =    191305.08159791  -212882.99274084
  entropy T*S    EENTRO =        -0.05860578
  eigenvalues    EBANDS =    -10409.81457981
  atomic energy  EATOM  =    215616.17930637
  Solvation  Ediel_sol  =         0.00000000
  ---------------------------------------------------
  free energy    TOTEN  =       -83.48606813 eV

  energy without entropy =      -83.42746235  energy(sigma->0) =      -83.45676524


--------------------------------------------------------------------------------------------------------




--------------------------------------- Iteration      1(   4)  ---------------------------------------


    POTLOK:  cpu time    0.5084: real time    0.5135
    SETDIJ:  cpu time    0.0638: real time    0.0638
    EDDIAG:  cpu time   15.0882: real time   15.1063
  RMM-DIIS:  cpu time   28.7814: real time   28.9488
    ORTHCH:  cpu time    4.3991: real time    4.4426
       DOS:  cpu time    0.0321: real time    0.0321
    CHARGE:  cpu time    2.8282: real time    2.8298
    MIXING:  cpu time    0.0165: real time    0.0165
    --------------------------------------------
      LOOP:  cpu time   51.7184: real time   51.9533

 eigenvalue-minimisations  : 15513
 total energy-change (2. order) : 0.4033032E+01  (-0.5827483E+00)
 number of electron    1501.0002399 magnetization      86.5477047
 augmentation part      986.2842523 magnetization      65.6141159

 Broyden mixing:
  rms(total) = 0.19798E+01    rms(broyden)= 0.19796E+01
  rms(prec ) = 0.21060E+01
  weight for this iteration     100.00

 eigenvalues of (default mixing * dielectric matrix)
  average eigenvalue GAMMA=   0.8997
  1.3291  0.7779  0.5921

 Free energy of the ion-electron system (eV)
  ---------------------------------------------------
  alpha Z        PSCENC =      6265.78094803
  Ewald energy   TEWEN  =    777136.47301198
  -Hartree energ DENC   =   -974259.42624469
  -exchange      EXHF   =         0.00000000
  -V(xc)+E(xc)   XCENC  =      7083.31935894
  PAW double counting   =    191436.84002877  -213018.60827936
  entropy T*S    EENTRO =        -0.03197376
  eigenvalues    EBANDS =    -10339.97919200
  atomic energy  EATOM  =    215616.17930637
  Solvation  Ediel_sol  =         0.00000000
  ---------------------------------------------------
  free energy    TOTEN  =       -79.45303572 eV

  energy without entropy =      -79.42106195  energy(sigma->0) =      -79.43704884


--------------------------------------------------------------------------------------------------------




--------------------------------------- Iteration      1(   5)  ---------------------------------------


    POTLOK:  cpu time    0.5032: real time    0.5037
    SETDIJ:  cpu time    0.0637: real time    0.0637
    EDDIAG:  cpu time   13.6937: real time   13.8891
  RMM-DIIS:  cpu time   27.8145: real time   27.8771
    ORTHCH:  cpu time    4.5787: real time    4.5842
       DOS:  cpu time    0.0115: real time    0.0115
    CHARGE:  cpu time    3.5032: real time    3.5061
    MIXING:  cpu time    0.0174: real time    0.0187
    --------------------------------------------
      LOOP:  cpu time   50.1850: real time   50.4541

 eigenvalue-minimisations  : 15518
 total energy-change (2. order) :-0.1881460E+01  (-0.5917371E+00)
 number of electron    1501.0002386 magnetization      58.6483454
 augmentation part      987.3043170 magnetization      38.9065086

 Broyden mixing:
  rms(total) = 0.16925E+01    rms(broyden)= 0.16923E+01
  rms(prec ) = 0.19405E+01
  weight for this iteration     100.00

 eigenvalues of (default mixing * dielectric matrix)
  average eigenvalue GAMMA=   1.1004
  2.5354  0.8269  0.6435  0.3958

 Free energy of the ion-electron system (eV)
  ---------------------------------------------------
  alpha Z        PSCENC =      6265.78094803
  Ewald energy   TEWEN  =    777136.47301198
  -Hartree energ DENC   =   -974530.71025213
  -exchange      EXHF   =         0.00000000
  -V(xc)+E(xc)   XCENC  =      7083.36683136
  PAW double counting   =    191551.19053025  -213133.06018353
  entropy T*S    EENTRO =        -0.07759416
  eigenvalues    EBANDS =    -10070.47709344
  atomic energy  EATOM  =    215616.17930637
  Solvation  Ediel_sol  =         0.00000000
  ---------------------------------------------------
  free energy    TOTEN  =       -81.33449528 eV

  energy without entropy =      -81.25690112  energy(sigma->0) =      -81.29569820


--------------------------------------------------------------------------------------------------------




--------------------------------------- Iteration      1(   6)  ---------------------------------------


    POTLOK:  cpu time    0.6289: real time    0.6335
    SETDIJ:  cpu time    0.0976: real time    0.0992
    EDDIAG:  cpu time   15.4844: real time   15.6006
  RMM-DIIS:  cpu time   27.3021: real time   27.4003
    ORTHCH:  cpu time    4.4876: real time    4.5055
       DOS:  cpu time    0.0546: real time    0.0546
    CHARGE:  cpu time    2.6913: real time    2.6925
    MIXING:  cpu time    0.0192: real time    0.0198
    --------------------------------------------
      LOOP:  cpu time   50.7658: real time   51.0060

 eigenvalue-minimisations  : 15497
 total energy-change (2. order) :-0.7190291E+01  (-0.6905270E+00)
 number of electron    1501.0002389 magnetization      31.7494032
 augmentation part      985.5389722 magnetization      17.1378836

 Broyden mixing:
  rms(total) = 0.11443E+01    rms(broyden)= 0.11442E+01
  rms(prec ) = 0.12759E+01
  weight for this iteration     100.00

 eigenvalues of (default mixing * dielectric matrix)
  average eigenvalue GAMMA=   1.6204
  5.4912  0.9517  0.7429  0.6261  0.2900

 Free energy of the ion-electron system (eV)
  ---------------------------------------------------
  alpha Z        PSCENC =      6265.78094803
  Ewald energy   TEWEN  =    777136.47301198
  -Hartree energ DENC   =   -974939.67633589
  -exchange      EXHF   =         0.00000000
  -V(xc)+E(xc)   XCENC  =      7079.84556927
  PAW double counting   =    191728.65808672  -213308.05848659
  entropy T*S    EENTRO =        -0.04138924
  eigenvalues    EBANDS =     -9667.68549659
  atomic energy  EATOM  =    215616.17930637
  Solvation  Ediel_sol  =         0.00000000
  ---------------------------------------------------
  free energy    TOTEN  =       -88.52478593 eV

  energy without entropy =      -88.48339669  energy(sigma->0) =      -88.50409131


--------------------------------------------------------------------------------------------------------




--------------------------------------- Iteration      1(   7)  ---------------------------------------


    POTLOK:  cpu time    0.4986: real time    0.4997
    SETDIJ:  cpu time    0.0653: real time    0.0653
    EDDIAG:  cpu time   13.8383: real time   13.8445
  RMM-DIIS:  cpu time   28.2530: real time   28.2796
    ORTHCH:  cpu time    4.3357: real time    4.3397
       DOS:  cpu time    0.3055: real time    0.3056
    CHARGE:  cpu time    3.6211: real time    3.6224
    MIXING:  cpu time    0.0192: real time    0.0192
    --------------------------------------------
      LOOP:  cpu time   50.9368: real time   50.9759

 eigenvalue-minimisations  : 15523
[...]
   0.297E+02 0.157E+02 -.489E+04   -.322E+02 -.172E+02 0.489E+04   0.253E+01 0.150E+01 -.191E+01   -.125E-03 -.158E-03 0.387E-04
   -.129E+01 0.825E-01 0.482E+04   0.134E+01 -.230E-01 -.482E+04   -.253E-01 -.386E-01 0.214E+01   -.311E-04 0.278E-04 0.414E-04
   -.767E+01 -.122E+01 0.249E+04   0.790E+01 0.124E+01 -.250E+04   -.193E+00 -.120E-01 0.183E+01   -.773E-05 0.774E-05 0.411E-04
   -.153E+02 -.127E+02 0.158E+02   0.152E+02 0.126E+02 -.156E+02   0.826E-01 0.105E+00 -.190E+00   0.554E-05 0.259E-04 -.936E-04
   -.271E+02 -.163E+02 -.251E+04   0.272E+02 0.161E+02 0.251E+04   -.115E+00 0.143E+00 -.892E+00   -.111E-04 -.130E-04 -.650E-04
   0.165E+02 -.376E+01 -.489E+04   -.173E+02 0.241E+01 0.489E+04   0.769E+00 0.136E+01 -.228E+01   -.315E-04 -.321E-04 0.117E-04
   -.679E+00 0.312E+00 0.482E+04   0.605E+00 -.175E+00 -.482E+04   0.662E-01 -.102E+00 0.251E+01   -.155E-04 0.748E-05 0.565E-04
   -.385E+01 0.845E+00 0.250E+04   0.386E+01 -.837E+00 -.250E+04   -.372E-03 -.704E-02 0.197E+01   -.453E-04 0.315E-04 0.283E-04
   -.192E+01 0.647E+00 0.103E+02   0.191E+01 -.651E+00 -.102E+02   0.412E-02 0.646E-02 -.131E+00   -.906E-05 -.215E-04 -.121E-03
   -.471E+01 0.559E+00 -.254E+04   0.482E+01 -.650E+00 0.254E+04   -.103E+00 0.928E-01 -.105E+01   -.169E-04 -.179E-05 -.388E-04
   -.244E+01 -.271E+01 -.486E+04   0.239E+01 0.273E+01 0.487E+04   0.481E-01 -.120E-01 -.242E+01   -.324E-04 0.482E-04 -.184E-04
   -.281E+00 0.399E-01 0.482E+04   0.214E+00 -.814E-01 -.482E+04   0.362E-01 0.324E-01 0.221E+01   -.275E-04 -.155E-04 0.340E-04
   -.895E+00 0.289E+01 0.250E+04   0.108E+01 -.284E+01 -.250E+04   -.146E+00 -.415E-01 0.178E+01   -.233E-04 0.166E-04 0.112E-05
   0.174E+02 0.121E+02 0.277E+02   -.173E+02 -.120E+02 -.274E+02   -.990E-01 -.524E-01 -.308E+00   0.220E-04 0.206E-04 -.101E-03
   0.521E+02 0.635E+02 -.248E+04   -.512E+02 -.627E+02 0.248E+04   -.859E+00 -.781E+00 -.127E+01   0.444E-04 0.802E-04 0.318E-04
   0.538E+01 0.100E+02 -.493E+04   -.299E+01 -.863E+01 0.493E+04   -.242E+01 -.140E+01 -.204E+01   0.488E-04 -.850E-05 -.439E-04
   0.158E+00 -.126E+01 0.482E+04   -.191E+00 0.116E+01 -.482E+04   0.240E-01 0.785E-01 0.233E+01   -.145E-04 -.452E-04 0.634E-04
   0.131E+01 -.182E+01 0.250E+04   -.117E+01 0.196E+01 -.250E+04   -.111E+00 -.104E+00 0.177E+01   0.280E-05 -.217E-04 0.417E-05
   0.174E+02 -.581E+01 0.140E+02   -.173E+02 0.579E+01 -.137E+02   -.127E+00 0.233E-01 -.239E+00   -.172E-04 0.268E-04 -.698E-04
   0.808E+02 0.168E+02 -.248E+04   -.797E+02 -.165E+02 0.248E+04   -.110E+01 -.381E+00 -.130E+01   0.781E-04 0.284E-05 -.566E-05
   0.126E+02 0.462E+02 -.487E+04   -.109E+02 -.462E+02 0.488E+04   -.164E+01 0.350E-01 -.210E+01   0.658E-04 -.477E-04 0.458E-04
   -.284E+00 -.133E+01 0.482E+04   0.264E+00 0.148E+01 -.482E+04   0.105E-01 -.131E+00 0.247E+01   -.279E-04 -.227E-05 0.693E-04
   0.354E+01 -.713E+01 0.249E+04   -.364E+01 0.735E+01 -.250E+04   0.696E-01 -.197E+00 0.168E+01   0.588E-05 -.589E-05 0.489E-04
   -.206E+00 -.188E+02 -.144E+02   0.291E+00 0.192E+02 0.146E+02   -.882E-01 -.342E+00 -.209E+00   0.463E-04 0.506E-04 -.148E-04
   0.337E+02 -.140E+02 -.249E+04   -.336E+02 0.144E+02 0.249E+04   -.745E-01 -.355E+00 -.112E+01   0.400E-04 0.547E-05 -.910E-04
   0.528E+02 0.695E+02 -.476E+04   -.524E+02 -.695E+02 0.476E+04   -.390E+00 -.421E-01 -.243E+01   0.390E-04 0.585E-04 0.648E-04
   -.108E+01 0.189E+00 0.482E+04   0.120E+01 -.286E+00 -.482E+04   -.108E+00 0.776E-01 0.247E+01   -.160E-04 -.251E-04 0.673E-04
   -.581E+01 -.428E+01 0.248E+04   0.591E+01 0.434E+01 -.248E+04   -.858E-01 -.590E-01 0.199E+01   -.882E-05 -.913E-05 0.649E-04
   -.156E+02 0.728E+01 -.186E+02   0.159E+02 -.740E+01 0.188E+02   -.318E+00 0.114E+00 -.172E+00   0.592E-04 -.698E-05 -.258E-04
   -.541E+01 -.579E+01 -.264E+04   0.556E+01 0.583E+01 0.264E+04   -.154E+00 -.415E-01 -.690E+00   -.239E-04 -.183E-04 -.124E-03
   0.823E+02 -.860E+01 -.478E+04   -.821E+02 0.880E+01 0.478E+04   -.232E+00 -.198E+00 -.253E+01   0.735E-04 0.185E-05 0.762E-04
   -.992E+00 0.933E+00 0.482E+04   0.874E+00 -.910E+00 -.482E+04   0.902E-01 -.258E-01 0.232E+01   -.495E-04 0.948E-05 0.584E-04
   -.360E+01 0.713E+01 0.249E+04   0.373E+01 -.734E+01 -.249E+04   -.118E+00 0.165E+00 0.170E+01   -.707E-05 0.126E-05 0.386E-04
   0.374E+01 0.184E+02 0.124E+02   -.372E+01 -.183E+02 -.122E+02   -.211E-01 -.123E+00 -.220E+00   -.972E-05 -.328E-04 -.799E-04
   0.577E+01 0.360E+02 -.249E+04   -.547E+01 -.361E+02 0.249E+04   -.291E+00 0.121E+00 -.108E+01   0.166E-04 0.191E-04 -.730E-04
   0.310E+02 -.103E+02 -.489E+04   -.303E+02 0.117E+02 0.489E+04   -.744E+00 -.146E+01 -.213E+01   0.177E-04 0.133E-03 0.440E-04
   -.177E+02 -.504E+02 -.436E+04   0.186E+02 0.516E+02 0.436E+04   -.831E+00 -.121E+01 -.179E+00   -.173E-04 0.348E-04 0.240E-04
   0.119E+02 0.911E+01 -.215E+04   -.115E+02 -.885E+01 0.216E+04   -.440E+00 -.257E+00 -.154E+01   0.105E-04 0.739E-04 -.394E-04
   -.588E+02 0.215E+02 -.435E+04   0.603E+02 -.214E+02 0.436E+04   -.144E+01 -.136E+00 -.175E+00   0.939E-04 0.299E-04 0.467E-06
   0.181E+02 -.616E+02 -.437E+04   -.188E+02 0.632E+02 0.437E+04   0.734E+00 -.169E+01 -.611E-01   -.590E-04 0.111E-03 0.933E-04
   -.135E+02 0.454E+01 -.216E+04   0.130E+02 -.418E+01 0.216E+04   0.486E+00 -.355E+00 -.147E+01   -.728E-04 0.103E-03 -.704E-04
   -.739E+01 0.112E+01 -.434E+04   0.756E+01 -.104E+01 0.434E+04   -.163E+00 -.761E-01 0.131E+01   -.619E-04 0.592E-04 0.670E-04
   -.467E+01 -.122E+02 -.216E+04   0.474E+01 0.116E+02 0.216E+04   -.637E-01 0.615E+00 -.148E+01   -.102E-03 -.201E-04 -.700E-04
   -.543E+02 0.494E+02 -.435E+04   0.553E+02 -.509E+02 0.435E+04   -.105E+01 0.148E+01 -.725E-01   0.163E-04 -.727E-04 -.769E-05
   0.469E+02 -.130E-01 -.438E+04   -.484E+02 -.136E+00 0.438E+04   0.152E+01 0.150E+00 -.103E+00   0.135E-04 0.664E-04 0.290E-04
   0.189E+02 0.427E+02 -.438E+04   -.197E+02 -.440E+02 0.438E+04   0.868E+00 0.122E+01 -.106E+00   -.381E-04 -.125E-03 -.522E-04
   -.104E+03 0.165E+03 -.226E+04   0.127E+03 -.203E+03 0.229E+04   -.229E+02 0.387E+02 -.291E+02   0.398E-05 0.659E-05 0.183E-03
   0.709E+02 -.129E+03 -.154E+04   -.743E+02 0.135E+03 0.153E+04   0.343E+01 -.578E+01 0.914E+01   0.616E-05 -.141E-04 0.984E-04
   0.294E+02 -.528E+02 -.388E+03   -.317E+02 0.568E+02 0.391E+03   0.227E+01 -.392E+01 -.231E+01   -.185E-05 0.370E-05 0.394E-04
 -----------------------------------------------------------------------------------------------
   0.172E+02 -.292E+02 0.643E+01   -.159E-11 0.453E-11 0.824E-11   -.172E+02 0.292E+02 -.654E+01   -.955E-05 -.654E-05 0.333E-03
 
 
 POSITION                                       TOTAL-FORCE (eV/Angst)
 -----------------------------------------------------------------------------------
     -0.00000      1.49510      1.26122         0.022989      0.002338      0.188734
      1.29479      0.74755      3.78366        -0.003658      0.060753     -0.063571
      0.00263      1.49873      6.13482        -0.006317      0.002511     -0.003806
      1.29332      0.80203      8.40069        -0.000050     -0.002025      0.005521
     -1.29480      3.73775      1.26122         0.004206      0.016338      0.182677
     -0.00001      2.99020      3.78366         0.064784      0.039153     -0.048901
     -1.29139      3.73961      6.13520         0.000261     -0.007666     -0.003991
     -2.58960      5.98040      1.26122         0.003173     -0.000891      0.127831
     -1.29481      5.23285      3.78366         0.044315     -0.034150     -0.063544
     -2.58580      5.98462      6.11314        -0.002714     -0.000726     -0.001051
     -1.25223      5.20585      8.40589        -0.000654      0.000253      0.007352
     -2.49333      5.91992     10.89870        -0.005186      0.002801     -0.000554
     -3.88440      8.22306      1.26122        -0.022317     -0.008269      0.125054
     -2.58961      7.47551      3.78366        -0.048259      0.020473     -0.160848
     -3.88871      8.22026      6.18019        -0.001857      0.000872     -0.003834
     -2.58775      7.47223      8.49036         0.002737     -0.003087      0.003022
     -3.88812      8.22178     11.42691        -0.000653     -0.003005      0.011248
     -5.17920     10.46571      1.26122         0.002526     -0.002595      0.135949
     -3.88441      9.71816      3.78366        -0.005395     -0.055822     -0.157897
     -5.17409     10.46660      6.11119         0.000929     -0.003636      0.001766
     -3.88341      9.71957      8.48467        -0.002072      0.006756     -0.004203
     -5.17854     10.56816     10.85541         0.001024     -0.004199     -0.000645
      2.58959      1.49510      1.26122         0.001668      0.032263      0.157099
      3.88439      0.74755      3.78366        -0.022364      0.021492     -0.129192
      2.58954      1.49716      6.13708         0.008530      0.007192      0.000068
      3.88900      0.75949      8.39605        -0.003406      0.003317      0.000603
      1.29479      3.73775      1.26122         0.022579      0.003442      0.192995
      2.58959      2.99020      3.78366        -0.051870      0.040817     -0.024843
      1.29500      3.73740      6.18961         0.001641      0.003666      0.004973
     -0.00001      5.98040      1.26122         0.019284     -0.008137      0.150327
      1.29479      5.23285      3.78366         0.004213     -0.061747     -0.021943
      0.00044      5.98018      6.13909         0.011310      0.008176     -0.001613
     -1.29481      8.22305      1.26122         0.020579      0.013236      0.116553
     -0.00001      7.47550      3.78366         0.005820     -0.035366     -0.124669
     -1.30256      8.21768      6.11132         0.004871      0.001738      0.000757
      0.01034      7.47242      8.39933         0.001665      0.001321     -0.002578
     -1.28976      8.17790     10.87079         0.001920      0.000584      0.002139
     -2.58961     10.46571      1.26122         0.018015      0.007092      0.126905
     -1.29481      9.71816      3.78366        -0.010871     -0.007898     -0.191913
     -2.59712     10.46155      6.10783        -0.000589      0.002815      0.001665
     -1.29533      9.71778      8.41294         0.002322     -0.000009     -0.001196
     -2.62236     10.48637     10.86472         0.002007      0.003138      0.004652
      5.17919      1.49509      1.26122        -0.018927     -0.018779      0.138584
      6.47398      0.74754      3.78366         0.013678     -0.011423     -0.188842
      5.17543      1.49604      6.10648        -0.008885      0.005538      0.003315
      6.47686      0.74685      8.40637         0.002192     -0.004842     -0.001435
      5.09133      1.53574     10.85629        -0.001905     -0.000435      0.006150
      3.88439      3.73774      1.26122        -0.041279     -0.012463      0.164207
      5.17918      2.99019      3.78366        -0.039170      0.018247     -0.141917
      3.87823      3.73838      6.13483        -0.003170     -0.015142     -0.001265
      5.17213      2.98488      8.39946        -0.009190      0.002962     -0.002963
      2.58959      5.98040      1.26122        -0.027470     -0.028624      0.163331
      3.88438      5.23285      3.78366        -0.046899     -0.030343     -0.070066
      2.58652      5.97534      6.13446        -0.013442      0.001105     -0.000742
      3.83755      5.20759      8.39882         0.000775     -0.002265      0.005827
      1.29479      8.22305      1.26122        -0.032664     -0.004893      0.130098
      2.58958      7.47550      3.78366        -0.011166     -0.046382     -0.136740
      1.29345      8.21951      6.10905        -0.005632     -0.010024      0.003128
      2.57738      7.47140      8.40129        -0.002119     -0.005572     -0.002314
      1.28937      8.12058     10.85978        -0.000520     -0.000915      0.007022
     -0.00001     10.46570      1.26122         0.016076      0.005068      0.089642
      1.29478      9.71815      3.78366        -0.006532      0.018444     -0.187169
     -0.00564     10.46228      6.10544         0.000255     -0.001529      0.000219
      1.29480      9.72209      8.40662        -0.004267     -0.000858     -0.001052
     -0.01173     10.45508     10.89482         0.002519      0.001406     -0.001662
      7.76878      1.49509      1.26122         0.026387     -0.022020      0.091980
      9.06358      0.74754      3.78366        -0.030469     -0.016028     -0.192061
      7.76856      1.49946      6.10790        -0.000916     -0.000003     -0.000734
      9.05941      0.74626      8.40809        -0.001008      0.000262     -0.001712
      7.76700      1.49625     10.91696         0.000547     -0.001633     -0.000289
      6.47398      3.73774      1.26122         0.025261      0.003250      0.144363
      7.76878      2.99019      3.78366         0.002901      0.016787     -0.173695
      6.47453      3.74528      6.10224        -0.000076     -0.000688      0.001691
      7.76714      2.98966      8.42732         0.002391      0.000011     -0.000384
      6.42346      3.73570     10.90025         0.000271     -0.000997      0.001199
      5.17918      5.98039      1.26122         0.018596      0.011716      0.132824
      6.47398      5.23284      3.78366         0.029982      0.021243     -0.194695
      5.17796      5.98150      6.12255         0.004470      0.000938      0.002119
      6.47303      5.23537      8.41425        -0.001770     -0.003696     -0.001615
      5.08283      5.92028     10.86628        -0.000052     -0.001130      0.004813
      3.88438      8.22305      1.26122         0.021747      0.020887      0.145549
      5.17918      7.47550      3.78366         0.035998      0.010211     -0.190292
      3.89029      8.22138      6.10785         0.000896      0.001133      0.000330
      5.17945      7.47546      8.42153        -0.001162     -0.002426     -0.001297
      3.86018      8.17389     10.90427        -0.002113      0.003090      0.003023
      2.58958     10.46570      1.26122        -0.007489      0.035046      0.094066
      3.88438      9.71815      3.78366         0.014349     -0.000003     -0.165704
      2.59258     10.46476      6.10875        -0.001041      0.001690     -0.001232
      3.87957      9.71838      8.43525         0.002857      0.002204     -0.007752
      2.59082     10.45872     10.91536        -0.000059      0.000120     -0.000930
     10.35838      1.49508      1.26122        -0.031210     -0.009249      0.097260
     11.65317      0.74753      3.78366         0.036553      0.011245     -0.103237
     10.35725      1.49667      6.11456         0.002579      0.003092      0.001199
     11.64397      0.75984      8.40475         0.003417      0.000129     -0.001830
     10.44786      1.54276     10.90105        -0.002694     -0.003048      0.004478
      9.06358      3.73774      1.26122        -0.009371     -0.027458      0.119754
     10.35837      2.99019      3.78366         0.025967      0.038532     -0.108497
      9.06464      3.74550      6.11386         0.002433      0.000678      0.000436
     10.36462      2.97947      8.40702         0.002594      0.002629     -0.000832
      9.11526      3.73506     10.92782        -0.001920     -0.000062      0.002430
      7.76878      5.98039      1.26122        -0.009791      0.019423      0.106624
      9.06357      5.23284      3.78366        -0.028548      0.021570     -0.209415
      7.77142      5.99410      6.12027        -0.002231      0.000251     -0.003732
      9.07412      5.23283      8.40875         0.004003     -0.005019     -0.002305
      7.78060      5.97445     10.92849         0.001328      0.002175     -0.001668
      6.47398      8.22304      1.26122         0.011038     -0.019749      0.105729
      7.76877      7.47549      3.78366         0.014376      0.004951     -0.166166
      6.48571      8.21807      6.12404         0.003077      0.002834     -0.002111
      7.78882      7.48734      8.58368        -0.004024     -0.001854     -0.001697
      6.47521      8.22809     10.93153         0.004522     -0.000319      0.000876
      5.17918     10.46569      1.26122        -0.028490     -0.002253      0.126023
      6.47397      9.71814      3.78366         0.006299     -0.043546     -0.202625
      5.18568     10.46282      6.11401        -0.000196     -0.001709     -0.001137
      6.47835      9.72923      8.41150         0.000439      0.001777     -0.000069
      5.20494     10.50618     10.92244        -0.005067     -0.001242      0.003574
      0.00822      1.52576     10.49258         0.002470      0.003381      0.009430
     -0.01671      2.98244      8.29798        -0.002107     -0.001452      0.000945
     -1.26115      3.72411     10.49527         0.005407     -0.001073      0.007145
      2.57244      1.53443     10.49071         0.000242      0.003316      0.007906
      2.60390      2.98384      8.30030         0.003234      0.000575     -0.002279
      1.29150      3.73266     10.33721         0.001413      0.001051      0.008656
      1.29379      5.24913      8.30122         0.001848      0.001149     -0.002246
      0.02648      5.94101     10.49393         0.005161     -0.001919      0.004782
      3.84316      3.72559     10.49761        -0.003373      0.002186      0.005295
      2.56147      5.94654     10.49871        -0.000819     -0.003637      0.005506
     -3.33806      7.30683     14.16655        -0.005903      0.013001     -0.009088
     -3.85418      8.18254     13.50401         0.006654     -0.014456     -0.003858
     -4.35703      9.05002     14.02551         0.002805      0.002553      0.002723
 -----------------------------------------------------------------------------------
    total drift:                                0.018465      0.010614     -0.104910


--------------------------------------------------------------------------------------------------------



  FREE ENERGIE OF THE ION-ELECTRON SYSTEM (eV)
  ---------------------------------------------------
  free  energy   TOTEN  =      -212.57681226 eV

  energy  without entropy=     -212.54324720  energy(sigma->0) =     -212.56002973
 


--------------------------------------------------------------------------------------------------------


    POTLOK:  cpu time    0.6390: real time    0.6612


--------------------------------------------------------------------------------------------------------


 stress matrix after NEB project (eV)
     14.40057      0.72387     -0.08001
      0.72387     13.28941     -0.06032
     -0.08001     -0.06032    -17.73567
  FORCES: max atom, RMS     0.016925    0.005337
  FORCE total and by dimension    0.060382    0.015142
  Stress total and by dimension   26.450085   17.735667


--------------------------------------------------------------------------------------------------------


  
 reached required accuracy - stopping structural energy minimisation
     LOOP+:  cpu time 1749.7489: real time 1758.5433
    4ORBIT:  cpu time    0.0000: real time    0.0000

 total amount of memory used by VASP MPI-rank0   340243. kBytes
=======================================================================

   base      :      30000. kBytes
   nonlr-proj:       8900. kBytes
   fftplans  :       6456. kBytes
   grid      :      18980. kBytes
   one-center:        497. kBytes
   wavefun   :     275410. kBytes
 
  
  
 General timing and accounting informations for this job:
 ========================================================
  
                  Total CPU time used (sec):     1816.027
                            User time (sec):     1807.377
                          System time (sec):        8.650
                         Elapsed time (sec):     1827.249
  
                   Maximum memory used (kb):      578976.
                   Average memory used (kb):           0.
  
                          Minor page faults:       112963
                          Major page faults:            0
                 Voluntary context switches:        12341
